 vasp.5.4.1 24Jun15 (build Jan 19 2018 10:32:04) complex                        
  
 executed on           IFC91_ompi date 2020.01.29  15:20:30
 running on   16 total cores
 distrk:  each k-point on   16 cores,    1 groups
 distr:  one band on NCORES_PER_BAND=   1 cores,   16 groups


--------------------------------------------------------------------------------------------------------


 INCAR:
 POTCAR:    PAW_PBE Pt 04Feb2005                  

 ----------------------------------------------------------------------------- 
|                                                                             |
|           W    W    AA    RRRRR   N    N  II  N    N   GGGG   !!!           |
|           W    W   A  A   R    R  NN   N  II  NN   N  G    G  !!!           |
|           W    W  A    A  R    R  N N  N  II  N N  N  G       !!!           |
|           W WW W  AAAAAA  RRRRR   N  N N  II  N  N N  G  GGG   !            |
|           WW  WW  A    A  R   R   N   NN  II  N   NN  G    G                |
|           W    W  A    A  R    R  N    N  II  N    N   GGGG   !!!           |
|                                                                             |
|      For optimal performance we recommend to set                            |
|        NCORE= 4 - approx SQRT( number of cores)                             |
|      NCORE specifies how many cores store one orbital (NPAR=cpu/NCORE).     |
|      This setting can  greatly improve the performance of VASP for DFT.     |
|      The default, NPAR=number of cores might be grossly inefficient         |
|      on modern multi-core architectures or massively parallel machines.     |
|      Do your own testing !!!!                                               |
|      Unfortunately you need to use the default for GW and RPA calculations. |
|      (for HF NCORE is supported but not extensively tested yet)             |
|                                                                             |
 ----------------------------------------------------------------------------- 

 POTCAR:    PAW_PBE Pt 04Feb2005                  
   VRHFIN =Pt: s1d9                                                             
   LEXCH  = PE                                                                  
   EATOM  =   729.1176 eV,   53.5886 Ry                                         
                                                                                
   TITEL  = PAW_PBE Pt 04Feb2005                                                
   LULTRA =        F    use ultrasoft PP ?                                      
   IUNSCR =        1    unscreen: 0-lin 1-nonlin 2-no                           
   RPACOR =    2.330    partial core radius                                     
   POMASS =  195.080; ZVAL   =   10.000    mass and valenz                      
   RCORE  =    2.600    outmost cutoff radius                                   
   RWIGS  =    2.750; RWIGS  =    1.455    wigner-seitz radius (au A)           
   ENMAX  =  230.283; ENMIN  =  172.712 eV                                      
   ICORE  =        3    local potential                                         
   LCOR   =        T    correct aug charges                                     
   LPAW   =        T    paw PP                                                  
   EAUG   =  358.966                                                            
   DEXC   =    0.000                                                            
   RMAX   =    2.658    core radius for proj-oper                               
   RAUG   =    1.300    factor for augmentation sphere                          
   RDEP   =    2.761    radius for radial grids                                 
   RDEPT  =    2.203    core radius for aug-charge                              
                                                                                
   Atomic configuration                                                         
   16 entries                                                                   
     n  l   j            E        occ.                                          
     1  0  0.50    -78401.1885   2.0000                                         
     2  0  0.50    -13770.7750   2.0000                                         
     2  1  1.50    -11931.0468   6.0000                                         
     3  0  0.50     -3234.7234   2.0000                                         
     3  1  1.50     -2699.2216   6.0000                                         
     3  2  2.50     -2119.5714  10.0000                                         
     4  0  0.50      -695.1528   2.0000                                         
     4  1  1.50      -519.6034   6.0000                                         
     4  2  2.50      -306.6786  10.0000                                         
     4  3  3.50       -70.1041  14.0000                                         
     5  0  0.50      -101.7747   2.0000                                         
     5  1  1.50       -55.9873   6.0000                                         
     5  2  2.50        -6.1423   9.0000                                         
     6  0  0.50        -5.6573   1.0000                                         
     6  1  1.50        -6.8029   0.0000                                         
     5  3  2.50        -1.3606   0.0000                                         
   Description                                                                  
     l       E           TYP  RCUT    TYP  RCUT                                 
     2     -6.1423404     23  2.500                                             
     2     -7.5029230     23  2.500                                             
     0     -5.6573207     23  2.500                                             
     0      0.7416693     23  2.500                                             
     1     -2.7211652     23  2.600                                             
     1     20.4087390     23  2.600                                             
     3     -1.3605826     23  2.500                                             
  local pseudopotential read in
  partial core-charges read in
  partial kinetic energy density read in
  atomic valenz-charges read in
  non local Contribution for L=           2  read in
    real space projection operators read in
  non local Contribution for L=           2  read in
    real space projection operators read in
  non local Contribution for L=           0  read in
    real space projection operators read in
  non local Contribution for L=           0  read in
    real space projection operators read in
  non local Contribution for L=           1  read in
    real space projection operators read in
  non local Contribution for L=           1  read in
    real space projection operators read in
    PAW grid and wavefunctions read in
 
   number of l-projection  operators is LMAX  =           6
   number of lm-projection operators is LMMAX =          18
 
 Optimization of the real space projectors (new method)

 maximal supplied QI-value         = 14.36
 optimisation between [QCUT,QGAM] = [ 10.20, 20.39] = [ 29.12,116.47] Ry 
 Optimized for a Real-space Cutoff    1.51 Angstroem

   l    n(q)    QCUT    max X(q) W(low)/X(q) W(high)/X(q)  e(spline) 
   2      8    10.197    66.195    0.45E-03    0.45E-03    0.14E-06
   2      8    10.197    64.643    0.46E-03    0.46E-03    0.14E-06
   0      9    10.197    95.520    0.15E-03    0.11E-03    0.54E-07
   0      9    10.197    63.403    0.15E-03    0.11E-03    0.52E-07
   1      9    10.197    19.961    0.13E-03    0.17E-03    0.77E-07
   1      9    10.197    13.289    0.10E-03    0.15E-03    0.67E-07
  PAW_PBE Pt 04Feb2005                  :
 energy of atom  1       EATOM= -729.1176
 kinetic energy error for atom=    0.0056 (will be added to EATOM!!)
 
 
 POSCAR: Pt slab                                 
  positions in direct lattice
  velocities in cartesian coordinates
 exchange correlation table for  LEXCH =        8
   RHO(1)=    0.500       N(1)  =     2000
   RHO(2)=  100.500       N(2)  =     4000

 VTST: version 3.1, (03/28/14)

 CHAIN: initializing optimizer
 
 OPT: Using VASP Conjugate-Gradient optimizer
 CHAIN: Read ICHAIN            0
 
 POSCAR: Pt slab                                 
  positions in direct lattice
  velocities in cartesian coordinates
 


--------------------------------------------------------------------------------------------------------


 ion  position               nearest neighbor table
   1  0.000  0.000  0.000-   6 2.80   5 2.80  17 2.80  20 2.80   2 2.80   4 2.80  32 2.80  16 2.80
                            13 2.80
   2  0.250  0.000  0.000-   7 2.80   6 2.80  17 2.80  18 2.80   1 2.80   3 2.80  29 2.80  14 2.80
                            13 2.80
   3  0.500  0.000  0.000-   8 2.80   7 2.80  18 2.80  19 2.80   2 2.80   4 2.80  30 2.80  15 2.80
                            14 2.80
   4  0.750  0.000  0.000-   5 2.80   8 2.80  19 2.80  20 2.80   1 2.80   3 2.80  31 2.80  16 2.80
                            15 2.80
   5  1.000  0.250  0.000-   9 2.80   4 2.80  10 2.80   1 2.80  20 2.80  24 2.80  21 2.80   8 2.80
                             6 2.80
   6  0.250  0.250  0.000-  10 2.80   1 2.80  11 2.80   2 2.80  17 2.80  21 2.80  22 2.80   7 2.80
                             5 2.80
   7  0.500  0.250  0.000-  11 2.80   2 2.80  12 2.80   3 2.80  18 2.80  22 2.80  23 2.80   8 2.80
                             6 2.80
   8  0.750  0.250  0.000-  12 2.80   9 2.80   3 2.80   4 2.80  19 2.80  23 2.80  24 2.80   7 2.80
                             5 2.80
   9  1.000  0.500  0.000-   5 2.80   8 2.80  14 2.80  13 2.80  24 2.80  25 2.80  28 2.80  12 2.80
                            10 2.80
  10  0.250  0.500  0.000-   6 2.80   5 2.80  15 2.80  14 2.80  21 2.80  25 2.80  26 2.80  11 2.80
                             9 2.80
  11  0.500  0.500  0.000-   7 2.80   6 2.80  16 2.80  15 2.80  22 2.80  26 2.80  27 2.80  12 2.80
                            10 2.80
  12  0.750  0.500  0.000-   8 2.80   7 2.80  13 2.80  16 2.80  23 2.80  27 2.80  28 2.80  11 2.80
                             9 2.80
  13  1.000  0.750  0.000-  12 2.80   9 2.80  28 2.80  29 2.80  32 2.80  16 2.80  14 2.80   2 2.80
                             1 2.80
  14  0.250  0.750  0.000-   9 2.80  10 2.80  25 2.80  29 2.80  30 2.80  15 2.80  13 2.80   3 2.80
                             2 2.80
  15  0.500  0.750  0.000-  10 2.80  11 2.80  26 2.80  30 2.80  31 2.80  16 2.80  14 2.80   4 2.80
                             3 2.80
  16  0.750  0.750  0.000-  11 2.80  12 2.80  27 2.80  31 2.80  32 2.80  15 2.80  13 2.80   4 2.80
                             1 2.80
  17  0.167  0.083  0.100-  33 2.75  45 2.77  34 2.77  22 2.80  21 2.80   6 2.80   1 2.80   2 2.80
                            20 2.80  18 2.80  32 2.80  29 2.80
  18  0.417  0.083  0.100-  34 2.75  46 2.76  35 2.77  23 2.80  22 2.80   7 2.80   2 2.80   3 2.80
                            19 2.80  17 2.80  30 2.80  29 2.80
  19  0.667  0.083  0.100-  35 2.76  47 2.76  36 2.77  24 2.80  23 2.80   8 2.80   3 2.80   4 2.80
                            20 2.80  18 2.80  31 2.80  30 2.80
  20  0.917  0.083  0.100-  36 2.75  48 2.77  33 2.77  24 2.80  21 2.80   5 2.80   1 2.80   4 2.80
                            19 2.80  17 2.80  32 2.80  31 2.80
  21  0.167  0.333  0.100-  33 2.77  37 2.78  38 2.78  20 2.80  17 2.80  25 2.80  26 2.80  10 2.80
                             6 2.80   5 2.80  24 2.80  22 2.80
  22  0.417  0.333  0.100-  34 2.76  39 2.77  38 2.78  18 2.80  17 2.80  26 2.80  27 2.80  11 2.80
                             7 2.80   6 2.80  23 2.80  21 2.80
  23  0.667  0.333  0.100-  39 2.75  40 2.77  35 2.77  19 2.80  18 2.80  27 2.80  28 2.80  12 2.80
                             8 2.80   7 2.80  24 2.80  22 2.80
  24  0.917  0.333  0.100-  40 2.75  36 2.76  19 2.80  20 2.80  28 2.80  25 2.80   9 2.80   5 2.80
                             8 2.80  21 2.80  23 2.80  37 2.81
  25  0.167  0.583  0.100-  41 2.76  37 2.79  42 2.79  30 2.80  21 2.80  24 2.80  29 2.80  14 2.80
                             9 2.80  10 2.80  28 2.80  26 2.80
  26  0.417  0.583  0.100-  43 2.77  42 2.77  38 2.78  31 2.80  22 2.80  21 2.80  30 2.80  15 2.80
                            10 2.80  11 2.80  27 2.80  25 2.80
  27  0.667  0.583  0.100-  43 2.75  39 2.76  44 2.77  32 2.80  23 2.80  22 2.80  31 2.80  16 2.80
                            11 2.80  12 2.80  28 2.80  26 2.80
  28  0.917  0.583  0.100-  44 2.75  40 2.77  41 2.77  29 2.80  24 2.80  23 2.80  32 2.80  13 2.80
                             9 2.80  12 2.80  27 2.80  25 2.80
  29  0.167  0.833  0.100-  45 2.75  41 2.77  46 2.77  28 2.80  25 2.80  14 2.80  13 2.80  32 2.80
                            30 2.80   2 2.80  18 2.80  17 2.80
  30  0.417  0.833  0.100-  46 2.75  47 2.76  42 2.80  25 2.80  26 2.80  15 2.80  14 2.80  31 2.80
                            29 2.80   3 2.80  19 2.80  18 2.80
  31  0.667  0.833  0.100-  47 2.75  43 2.76  48 2.77  26 2.80  27 2.80  16 2.80  15 2.80  32 2.80
                            30 2.80   4 2.80  20 2.80  19 2.80
  32  0.917  0.833  0.100-  48 2.76  44 2.77  45 2.77  27 2.80  28 2.80  16 2.80  13 2.80  31 2.80
                            29 2.80   1 2.80  20 2.80  17 2.80
  33  0.084  0.166  0.198-  17 2.75  20 2.77  21 2.77  53 2.78  54 2.79  48 2.80  45 2.80  36 2.80
                            49 2.80  37 2.80  38 2.80  34 2.81
  34  0.335  0.166  0.198-  18 2.75  22 2.76  17 2.77  54 2.77  39 2.79  35 2.80  46 2.80  45 2.80
                            50 2.81  33 2.81  55 2.81  38 2.81
  35  0.584  0.166  0.198-  19 2.76  23 2.77  18 2.77  55 2.79  47 2.79  36 2.80  39 2.80  34 2.80
                            51 2.80  40 2.80  46 2.80  56 2.80
  36  0.834  0.167  0.198-  20 2.75  24 2.76  19 2.77  53 2.79  40 2.79  56 2.79  35 2.80  47 2.80
                            33 2.80  48 2.80  52 2.81  37 2.81
  37  0.086  0.417  0.199-  42 2.77  57 2.77  38 2.78  21 2.78  53 2.78  25 2.79  41 2.80  33 2.80
                            24 2.81  40 2.81  36 2.81  58 2.85
  38  0.334  0.417  0.199-  37 2.78  42 2.78  26 2.78  22 2.78  54 2.78  21 2.78  59 2.79  43 2.80
                            33 2.80  34 2.81  39 2.81  58 2.83
  39  0.584  0.416  0.198-  23 2.75  27 2.76  22 2.77  59 2.77  34 2.79  35 2.80  40 2.80  44 2.80
                            55 2.80  43 2.81  60 2.81  38 2.81
  40  0.834  0.416  0.198-  24 2.75  28 2.77  23 2.77  57 2.79  36 2.79  60 2.79  35 2.80  39 2.80
                            44 2.80  41 2.80  56 2.80  37 2.81
  41  0.084  0.666  0.198-  25 2.76  29 2.77  28 2.77  61 2.79  57 2.79  62 2.80  44 2.80  45 2.80
                            42 2.80  40 2.80  46 2.80  37 2.80
  42  0.333  0.665  0.199-  37 2.77  26 2.77  62 2.77  38 2.78  63 2.79  25 2.79  30 2.80  41 2.80
                            43 2.80  46 2.81  47 2.81  58 2.84
  43  0.585  0.666  0.198-  27 2.75  31 2.76  26 2.77  63 2.78  59 2.79  48 2.80  44 2.80  38 2.80
                            47 2.80  42 2.80  39 2.81  64 2.81
  44  0.834  0.666  0.198-  28 2.75  32 2.77  27 2.77  64 2.79  41 2.80  43 2.80  60 2.80  39 2.80
                            40 2.80  45 2.80  61 2.80  48 2.81
  45  0.085  0.916  0.198-  29 2.75  17 2.77  32 2.77  49 2.79  41 2.80  33 2.80  61 2.80  46 2.80
                            50 2.80  34 2.80  44 2.80  48 2.81
  46  0.335  0.916  0.198-  30 2.75  18 2.76  29 2.77  62 2.79  47 2.79  50 2.79  35 2.80  34 2.80
                            45 2.80  41 2.80  51 2.81  42 2.81
  47  0.584  0.917  0.198-  31 2.75  19 2.76  30 2.76  63 2.78  46 2.79  51 2.79  35 2.79  36 2.80
                            48 2.80  43 2.80  52 2.81  42 2.81
  48  0.834  0.916  0.198-  32 2.76  20 2.77  31 2.77  52 2.79  43 2.80  33 2.80  64 2.80  47 2.80
                            36 2.80  49 2.80  45 2.81  44 2.81
  49  0.002  0.999  0.298-  64 2.79  45 2.79  54 2.79  53 2.79  61 2.79  52 2.80  50 2.80  33 2.80
                            48 2.80
  50  0.252  0.999  0.298-  54 2.77  62 2.78  46 2.79  61 2.80  51 2.80  55 2.80  49 2.80  45 2.80
                            34 2.81
  51  0.502  1.000  0.298-  55 2.79  63 2.79  62 2.79  47 2.79  56 2.79  35 2.80  50 2.80  52 2.80
                            46 2.81
  52  0.752  0.999  0.298-  63 2.78  53 2.78  48 2.79  51 2.80  49 2.80  56 2.80  64 2.80  36 2.81
                            47 2.81
  53  0.000  0.247  0.297-  52 2.78  33 2.78  37 2.78  36 2.79  49 2.79  56 2.79  54 2.82  57 2.82
                            58 2.83
  54  0.252  0.247  0.297-  34 2.77  50 2.77  38 2.78  33 2.79  49 2.79  55 2.79  53 2.82  58 2.82
                            59 2.83
  55  0.502  0.249  0.298-  35 2.79  59 2.79  51 2.79  54 2.79  56 2.79  50 2.80  60 2.80  39 2.80
                            34 2.81
  56  0.752  0.249  0.298-  53 2.79  57 2.79  55 2.79  36 2.79  51 2.79  60 2.80  52 2.80  35 2.80
                            40 2.80
  57  0.000  0.499  0.298-  37 2.77  60 2.78  40 2.79  41 2.79  56 2.79  61 2.79  62 2.82  53 2.82
                            58 2.83
  58  0.253  0.499  0.302-  59 2.82  54 2.82  63 2.82  53 2.83  62 2.83  57 2.83  38 2.83  42 2.84
                            37 2.85
  59  0.505  0.499  0.297-  39 2.77  60 2.77  43 2.79  38 2.79  55 2.79  64 2.79  58 2.82  63 2.82
                            54 2.83
  60  0.752  0.499  0.298-  59 2.77  57 2.78  40 2.79  61 2.80  44 2.80  56 2.80  64 2.80  55 2.80
                            39 2.81
  61  0.002  0.749  0.298-  41 2.79  64 2.79  49 2.79  62 2.79  57 2.79  60 2.80  50 2.80  45 2.80
                            44 2.80
  62  0.252  0.751  0.298-  42 2.77  50 2.78  46 2.79  51 2.79  61 2.79  41 2.80  57 2.82  63 2.82
                            58 2.83
  63  0.504  0.751  0.297-  52 2.78  43 2.78  47 2.78  42 2.79  64 2.79  51 2.79  62 2.82  59 2.82
                            58 2.82
  64  0.753  0.750  0.298-  49 2.79  44 2.79  61 2.79  59 2.79  63 2.79  48 2.80  60 2.80  52 2.80
                            43 2.81
 
  LATTYP: Found a hexagonal cell.
 ALAT       =    11.2000000000
 C/A-ratio  =     2.0412414523
  
  Lattice vectors:
  
 A1 = (  11.2000000000,   0.0000000000,   0.0000000000)
 A2 = (  -5.6000000000,   9.6994845224,   0.0000000000)
 A3 = (   0.0000000000,   0.0000000000,  22.8619042660)


Analysis of symmetry for initial positions (statically):
=====================================================================
 Subroutine PRICEL returns:
 Original cell was already a primitive cell.
 

 Routine SETGRP: Setting up the symmetry group for a 
 hexagonal supercell.


 Subroutine GETGRP returns: Found  1 space group operations
 (whereof  1 operations were pure point group operations)
 out of a pool of 24 trial point group operations.


The static configuration has the point symmetry C_1 .


Analysis of symmetry for dynamics (positions and initial velocities):
=====================================================================
 Subroutine PRICEL returns:
 Original cell was already a primitive cell.
 

 Routine SETGRP: Setting up the symmetry group for a 
 hexagonal supercell.


 Subroutine GETGRP returns: Found  1 space group operations
 (whereof  1 operations were pure point group operations)
 out of a pool of 24 trial point group operations.


The dynamic configuration has the point symmetry C_1 .


Analysis of constrained symmetry for selective dynamics:
=====================================================================
 Subroutine PRICEL returns:
 Original cell was already a primitive cell.
 

 Routine SETGRP: Setting up the symmetry group for a 
 hexagonal supercell.


 Subroutine GETGRP returns: Found  1 space group operations
 (whereof  1 operations were pure point group operations)
 out of a pool of 24 trial point group operations.


The constrained configuration has the point symmetry C_1 .


 Subroutine INISYM returns: Found  1 space group operations
 (whereof  1 operations are pure point group operations),
 and found     1 'primitive' translations

 
 
 KPOINTS:  Automatic mesh        #Titlle/comment  

Automatic generation of k-mesh.
Space group operators:
 irot       det(A)        alpha          n_x          n_y          n_z        tau_x        tau_y        tau_z
    1     1.000000     0.000000     1.000000     0.000000     0.000000     0.000000     0.000000     0.000000
 
 Subroutine IBZKPT returns following result:
 ===========================================
 
 Found      5 irreducible k-points:
 
 Following reciprocal coordinates:
            Coordinates               Weight
  0.000000  0.000000  0.000000      1.000000
  0.333333  0.000000  0.000000      2.000000
  0.000000  0.333333  0.000000      2.000000
  0.333333  0.333333  0.000000      2.000000
 -0.333333  0.333333  0.000000      2.000000
 
 Following cartesian coordinates:
            Coordinates               Weight
  0.000000  0.000000  0.000000      1.000000
  0.029762  0.017183  0.000000      2.000000
  0.000000  0.034366  0.000000      2.000000
  0.029762  0.051549  0.000000      2.000000
 -0.029762  0.017183  0.000000      2.000000
 


--------------------------------------------------------------------------------------------------------




 Dimension of arrays:
   k-points           NKPTS =      5   k-points in BZ     NKDIM =      5   number of bands    NBANDS=    384
   number of dos      NEDOS =    301   number of ions     NIONS =     64
   non local maximal  LDIM  =      6   non local SUM 2l+1 LMDIM =     18
   total plane-waves  NPLWV = 351232
   max r-space proj   IRMAX =   2083   max aug-charges    IRDMAX=   8764
   dimension x,y,z NGX =    56 NGY =   56 NGZ =  112
   dimension x,y,z NGXF=   112 NGYF=  112 NGZF=  224
   support grid    NGXF=   112 NGYF=  112 NGZF=  224
   ions per type =              64
 NGX,Y,Z   is equivalent  to a cutoff of   8.31,  8.31,  8.14 a.u.
 NGXF,Y,Z  is equivalent  to a cutoff of  16.62, 16.62, 16.29 a.u.


 I would recommend the setting:
   dimension x,y,z NGX =    55 NGY =   55 NGZ =  112
 SYSTEM =  unknown system                          
 POSCAR =  Pt slab                                 

 Startparameter for this run:
   NWRITE =      2    write-flag & timer
   PREC   = normal    normal or accurate (medium, high low for compatibility)
   ISTART =      0    job   : 0-new  1-cont  2-samecut
   ICHARG =      2    charge: 1-file 2-atom 10-const
   ISPIN  =      1    spin polarized calculation?
   LNONCOLLINEAR =      F non collinear calculations
   LSORBIT =      F    spin-orbit coupling
   INIWAV =      1    electr: 0-lowe 1-rand  2-diag
   LASPH  =      F    aspherical Exc in radial PAW
   METAGGA=      F    non-selfconsistent MetaGGA calc.

 Electronic Relaxation 1
   ENCUT  =  400.0 eV  29.40 Ry    5.42 a.u.  18.26 18.26 37.28*2*pi/ulx,y,z
   ENINI  =  400.0     initial cutoff
   ENAUG  =  644.9 eV  augmentation charge cutoff
   NELM   =     60;   NELMIN=  2; NELMDL=  0     # of ELM steps 
   EDIFF  = 0.1E-05   stopping-criterion for ELM
   LREAL  =      T    real-space projection
   NLSPLINE    = F    spline interpolate recip. space projectors
   LCOMPAT=      F    compatible to vasp.4.4
   GGA_COMPAT  = T    GGA compatible to vasp.4.4-vasp.4.6
   LMAXPAW     = -100 max onsite density
   LMAXMIX     =    2 max onsite mixed and CHGCAR
   VOSKOWN=      0    Vosko Wilk Nusair interpolation
   ROPT   =   -0.00050
 Ionic relaxation
   EDIFFG = -.2E-01   stopping-criterion for IOM
   NSW    =    100    number of steps for IOM
   NBLOCK =      1;   KBLOCK =    100    inner block; outer block 
   IBRION =      2    ionic relax: 0-MD 1-quasi-New 2-CG
   NFREE  =      1    steps in history (QN), initial steepest desc. (CG)
   ISIF   =      2    stress and relaxation
   IWAVPR =     11    prediction:  0-non 1-charg 2-wave 3-comb
   ISYM   =      2    0-nonsym 1-usesym 2-fastsym
   LCORR  =      T    Harris-Foulkes like correction to forces

   POTIM  = 0.5000    time-step for ionic-motion
   TEIN   =    0.0    initial temperature
   TEBEG  =    0.0;   TEEND  =   0.0 temperature during run
   SMASS  =  -3.00    Nose mass-parameter (am)
   estimated Nose-frequenzy (Omega)   =  0.10E-29 period in steps =****** mass=  -0.287E-26a.u.
   SCALEE = 1.0000    scale energy and forces
   NPACO  =    256;   APACO  = 16.0  distance and # of slots for P.C.
   PSTRESS=    0.0 pullay stress

  Mass of Ions in am
   POMASS = 195.08
  Ionic Valenz
   ZVAL   =  10.00
  Atomic Wigner-Seitz radii
   RWIGS  =  -1.00
  virtual crystal weights 
   VCA    =   1.00
   NELECT =     640.0000    total number of electrons
   NUPDOWN=      -1.0000    fix difference up-down

 DOS related values:
   EMIN   =  10.00;   EMAX   =-10.00  energy-range for DOS
   EFERMI =   0.00
   ISMEAR =     2;   SIGMA  =   0.20  broadening in eV -4-tet -1-fermi 0-gaus

 Electronic relaxation 2 (details)
   IALGO  =     68    algorithm
   LDIAG  =      T    sub-space diagonalisation (order eigenvalues)
   LSUBROT=      F    optimize rotation matrix (better conditioning)
   TURBO    =      0    0=normal 1=particle mesh
   IRESTART =      0    0=no restart 2=restart with 2 vectors
   NREBOOT  =      0    no. of reboots
   NMIN     =      0    reboot dimension
   EREF     =   0.00    reference energy to select bands
   IMIX   =      4    mixing-type and parameters
     AMIX     =   0.40;   BMIX     =  1.00
     AMIX_MAG =   1.60;   BMIX_MAG =  1.00
     AMIN     =   0.10
     WC   =   100.;   INIMIX=   1;  MIXPRE=   1;  MAXMIX= -45

 Intra band minimization:
   WEIMIN = 0.0010     energy-eigenvalue tresh-hold
   EBREAK =  0.65E-09  absolut break condition
   DEPER  =   0.30     relativ break condition  

   TIME   =   0.40     timestep for ELM

  volume/ion in A,a.u.               =      38.81       261.88
  Fermi-wavevector in a.u.,A,eV,Ry     =   1.041778  1.968675 14.766418  1.085301
  Thomas-Fermi vector in A             =   2.176414
 
 Write flags
   LWAVE  =      F    write WAVECAR
   LCHARG =      F    write CHGCAR
   LVTOT  =      F    write LOCPOT, total local potential
   LVHAR  =      F    write LOCPOT, Hartree potential only
   LELF   =      F    write electronic localiz. function (ELF)
   LORBIT =      0    0 simple, 1 ext, 2 COOP (PROOUT)


 Dipole corrections
   LMONO  =      F    monopole corrections only (constant potential shift)
   LDIPOL =      F    correct potential (dipole corrections)
   IDIPOL =      0    1-x, 2-y, 3-z, 4-all directions 
   EPSILON=  1.0000000 bulk dielectric constant

 Exchange correlation treatment:
   GGA     =    PE    GGA type
   LEXCH   =     8    internal setting for exchange type
   VOSKOWN=      0    Vosko Wilk Nusair interpolation
   LHFCALC =     F    Hartree Fock is set to
   LHFONE  =     F    Hartree Fock one center treatment
   AEXX    =    0.0000 exact exchange contribution

 Linear response parameters
   LEPSILON=     F    determine dielectric tensor
   LRPA    =     F    only Hartree local field effects (RPA)
   LNABLA  =     F    use nabla operator in PAW spheres
   LVEL    =     F    velocity operator in full k-point grid
   LINTERFAST=   F  fast interpolation
   KINTER  =     0    interpolate to denser k-point grid
   CSHIFT  =0.1000    complex shift for real part using Kramers Kronig
   OMEGAMAX=  -1.0    maximum frequency
   DEG_THRESHOLD= 0.2000000E-02 threshold for treating states as degnerate
   RTIME   =    0.100 relaxation time in fs

 Orbital magnetization related:
   ORBITALMAG=     F  switch on orbital magnetization
   LCHIMAG   =     F  perturbation theory with respect to B field
   DQ        =  0.001000  dq finite difference perturbation B field



--------------------------------------------------------------------------------------------------------


 conjugate gradient relaxation of ions
   using selective dynamics as specified on POSCAR
 charge density and potential will be updated during run
 non-spin polarized calculation
 RMM-DIIS sequential band-by-band and
  variant of blocked Davidson during initial phase
 perform sub-space diagonalisation
    before iterative eigenvector-optimisation
 modified Broyden-mixing scheme, WC =      100.0
 initial mixing is a Kerker type mixing with AMIX =  0.4000 and BMIX =      1.0000
 Hartree-type preconditioning will be used
 using additional bands           64
 real space projection scheme for non local part
 use partial core corrections
 calculate Harris-corrections to forces 
   (improved forces if not selfconsistent)
 use gradient corrections 
 use of overlap-Matrix (Vanderbilt PP)
 Methfessel and Paxton  Order N= 2 SIGMA  =   0.20


--------------------------------------------------------------------------------------------------------


  energy-cutoff  :      400.00
  volume of cell :     2483.59
      direct lattice vectors                 reciprocal lattice vectors
    11.200000000  0.000000000  0.000000000     0.089285714  0.051549131  0.000000000
    -5.600000000  9.699484522  0.000000000     0.000000000  0.103098262  0.000000000
     0.000000000  0.000000000 22.861904266     0.000000000  0.000000000  0.043740888

  length of vectors
    11.200000000 11.200000000 22.861904266     0.103098262  0.103098262  0.043740888


 
 k-points in units of 2pi/SCALE and weight:  Automatic mesh        #Titlle/comment  
   0.00000000  0.00000000  0.00000000       0.111
   0.02976190  0.01718304  0.00000000       0.222
   0.00000000  0.03436609  0.00000000       0.222
   0.02976190  0.05154913  0.00000000       0.222
  -0.02976190  0.01718304  0.00000000       0.222
 
 k-points in reciprocal lattice and weights:  Automatic mesh        #Titlle/comment  
   0.00000000  0.00000000  0.00000000       0.111
   0.33333333  0.00000000  0.00000000       0.222
   0.00000000  0.33333333  0.00000000       0.222
   0.33333333  0.33333333  0.00000000       0.222
  -0.33333333  0.33333333  0.00000000       0.222
 
 position of ions in fractional coordinates (direct lattice) 
   0.00000000  0.00000000  0.00000000
   0.25000000  0.00000000  0.00000000
   0.50000000  0.00000000  0.00000000
   0.75000000  0.00000000  0.00000000
   0.99999994  0.24999988  0.00000000
   0.24999994  0.24999988  0.00000000
   0.49999994  0.24999988  0.00000000
   0.74999994  0.24999988  0.00000000
   0.99999988  0.49999977  0.00000000
   0.24999988  0.49999977  0.00000000
   0.49999988  0.49999977  0.00000000
   0.74999988  0.49999977  0.00000000
   0.99999983  0.74999965  0.00000000
   0.24999983  0.74999965  0.00000000
   0.49999983  0.74999965  0.00000000
   0.74999983  0.74999965  0.00000000
   0.16666665  0.08333329  0.09999998
   0.41666665  0.08333329  0.09999998
   0.66666665  0.08333329  0.09999998
   0.91666665  0.08333329  0.09999998
   0.16666659  0.33333318  0.09999998
   0.41666659  0.33333318  0.09999998
   0.66666659  0.33333318  0.09999998
   0.91666659  0.33333318  0.09999998
   0.16666653  0.58333306  0.09999998
   0.41666653  0.58333306  0.09999998
   0.66666653  0.58333306  0.09999998
   0.91666653  0.58333306  0.09999998
   0.16666647  0.83333294  0.09999998
   0.41666647  0.83333294  0.09999998
   0.66666647  0.83333294  0.09999998
   0.91666647  0.83333294  0.09999998
   0.08405122  0.16588739  0.19800804
   0.33485536  0.16636446  0.19775626
   0.58449996  0.16628084  0.19819058
   0.83425865  0.16661118  0.19787201
   0.08613786  0.41720572  0.19943552
   0.33378073  0.41690027  0.19904515
   0.58439506  0.41584966  0.19780179
   0.83449363  0.41600761  0.19793095
   0.08426551  0.66643081  0.19816726
   0.33345782  0.66466423  0.19924120
   0.58476267  0.66648956  0.19799109
   0.83436159  0.66601741  0.19806572
   0.08459121  0.91633604  0.19805444
   0.33469447  0.91630433  0.19789522
   0.58408445  0.91652518  0.19780679
   0.83415437  0.91639627  0.19803803
   0.00162048  0.99852427  0.29789810
   0.25200934  0.99910067  0.29791539
   0.50220622  0.99958091  0.29800814
   0.75198614  0.99922548  0.29792478
   0.00001645  0.24697114  0.29745929
   0.25171130  0.24656731  0.29708149
   0.50226243  0.24896649  0.29795551
   0.75174953  0.24909565  0.29806090
   0.00041527  0.49914938  0.29759565
   0.25273836  0.49881779  0.30185704
   0.50455764  0.49930704  0.29715355
   0.75219324  0.49924495  0.29798551
   0.00189127  0.74935869  0.29799414
   0.25209292  0.75091816  0.29757691
   0.50434196  0.75128243  0.29720719
   0.75276402  0.74955463  0.29789580
 
 position of ions in cartesian coordinates  (Angst):
   0.00000000  0.00000000  0.00000000
   2.80000000  0.00000000  0.00000000
   5.60000000  0.00000000  0.00000000
   8.40000000  0.00000000  0.00000000
   9.80000000  2.42487000  0.00000000
   1.40000000  2.42487000  0.00000000
   4.20000000  2.42487000  0.00000000
   7.00000000  2.42487000  0.00000000
   8.40000000  4.84974000  0.00000000
   0.00000000  4.84974000  0.00000000
   2.80000000  4.84974000  0.00000000
   5.60000000  4.84974000  0.00000000
   7.00000000  7.27461000  0.00000000
  -1.40000000  7.27461000  0.00000000
   1.40000000  7.27461000  0.00000000
   4.20000000  7.27461000  0.00000000
   1.40000000  0.80829000  2.28619000
   4.20000000  0.80829000  2.28619000
   7.00000000  0.80829000  2.28619000
   9.80000000  0.80829000  2.28619000
   0.00000000  3.23316000  2.28619000
   2.80000000  3.23316000  2.28619000
   5.60000000  3.23316000  2.28619000
   8.40000000  3.23316000  2.28619000
  -1.40000000  5.65803000  2.28619000
   1.40000000  5.65803000  2.28619000
   4.20000000  5.65803000  2.28619000
   7.00000000  5.65803000  2.28619000
  -2.80000000  8.08290000  2.28619000
   0.00000000  8.08290000  2.28619000
   2.80000000  8.08290000  2.28619000
   5.60000000  8.08290000  2.28619000
   0.01240426  1.60902221  4.52684077
   2.81873905  1.61364946  4.52108466
   5.61522683  1.61283841  4.53101409
   8.41067422  1.61604260  4.52373100
  -1.37160801  4.04668040  4.55947573
   1.40370266  4.04371776  4.55055116
   4.21646658  4.03352738  4.52212558
   7.01668606  4.03505939  4.52507842
  -2.78823882  6.46403536  4.53048087
   0.01260789  6.44690038  4.55503322
   2.81700035  6.46460519  4.52645337
   5.61515235  6.46002555  4.52815958
  -4.18406024  8.88798721  4.52790154
  -1.38272618  8.88767969  4.52426168
   1.40920485  8.88982178  4.52223997
   4.21070986  8.88857142  4.52752641
  -5.57358654  9.68517069  6.81051778
  -2.77245913  9.69076147  6.81091315
   0.02705652  9.69541959  6.81303356
   2.82658210  9.69197206  6.81112790
  -1.38285419  2.39549279  6.80048573
   1.43838960  2.39157581  6.79184848
   4.23112687  2.41484663  6.81183030
   7.02465909  2.41609935  6.81423976
  -2.79058553  4.84149170  6.80360320
   0.03728996  4.83827548  6.90102683
   2.85492609  4.84302091  6.79349611
   5.62879256  4.84241864  6.81251609
  -4.17522645  7.26839298  6.81271347
  -1.38170102  7.28351912  6.80317492
   1.44144828  7.28705233  6.79472235
   4.23345109  7.27029351  6.81046521
 


--------------------------------------------------------------------------------------------------------


 k-point  1 :   0.0000 0.0000 0.0000  plane waves:   45123
 k-point  2 :   0.3333 0.0000 0.0000  plane waves:   45124
 k-point  3 :   0.0000 0.3333 0.0000  plane waves:   45124
 k-point  4 :   0.3333 0.3333 0.0000  plane waves:   45102
 k-point  5 :  -0.3333 0.3333 0.0000  plane waves:   45124

 maximum and minimum number of plane-waves per node :     45124    45102

 maximum number of plane-waves:     45124
 maximum index in each direction: 
   IXMAX=   18   IYMAX=   18   IZMAX=   37
   IXMIN=  -18   IYMIN=  -18   IZMIN=  -37

 WARNING: aliasing errors must be expected set NGX to  74 to avoid them
 WARNING: aliasing errors must be expected set NGY to  74 to avoid them
 WARNING: aliasing errors must be expected set NGZ to 150 to avoid them
 aliasing errors are usually negligible using standard VASP settings
 and one can safely disregard these warnings

 serial   3D FFT for wavefunctions
 parallel 3D FFT for charge:
    minimum data exchange during FFTs selected (reduces bandwidth)


 total amount of memory used by VASP on root node   172063. kBytes
========================================================================

   base      :      30000. kBytes
   nonlr-proj:      22234. kBytes
   fftplans  :       7383. kBytes
   grid      :      22579. kBytes
   one-center:        995. kBytes
   wavefun   :      88872. kBytes
 
     INWAV:  cpu time    0.0000: real time    0.0000
 Broyden mixing: mesh for mixing (old mesh)
   NGX = 37   NGY = 37   NGZ = 75
  (NGX  =112   NGY  =112   NGZ  =224)
  gives a total of 102675 points

 initial charge density was supplied:
 charge density of overlapping atoms calculated
 number of electron     640.0000000 magnetization 
 keeping initial charge density in first step


--------------------------------------------------------------------------------------------------------


 Maximum index for non-local projection operator         1981
 Maximum index for augmentation-charges          601 (set IRDMAX)


--------------------------------------------------------------------------------------------------------


 First call to EWALD:  gamma=   0.131
 Maximum number of real-space cells 4x 4x 2
 Maximum number of reciprocal cells 2x 2x 4

 FEWALD executed in parallel
    FEWALD:  cpu time    0.0040: real time    0.0032


----------------------------------------- Iteration    1(   1)  ---------------------------------------


    POTLOK:  cpu time    0.1160: real time    0.1143
    SETDIJ:  cpu time    0.0120: real time    0.0131
     EDDAV:  cpu time   17.1600: real time   17.2011
       DOS:  cpu time    0.0000: real time    0.0008
    --------------------------------------------
      LOOP:  cpu time   17.2880: real time   17.3316

 eigenvalue-minimisations  :  3840
 total energy-change (2. order) : 0.3907922E+04  (-0.2506172E+05)
 number of electron     640.0000000 magnetization 
 augmentation part      640.0000000 magnetization 

 Free energy of the ion-electron system (eV)
  ---------------------------------------------------
  alpha Z        PSCENC =      1567.72816801
  Ewald energy   TEWEN  =    192732.61904243
  -Hartree energ DENC   =   -242331.99977717
  -exchange      EXHF   =         0.00000000
  -V(xc)+E(xc)   XCENC  =       217.47649449
  PAW double counting   =     44551.90626740   -42741.77887881
  entropy T*S    EENTRO =        -0.00106822
  eigenvalues    EBANDS =      3248.80679212
  atomic energy  EATOM  =     46663.16491575
  Solvation  Ediel_sol  =         0.00000000
  ---------------------------------------------------
  free energy    TOTEN  =      3907.92195599 eV

  energy without entropy =     3907.92302421  energy(sigma->0) =     3907.92222305


--------------------------------------------------------------------------------------------------------




----------------------------------------- Iteration    1(   2)  ---------------------------------------


     EDDAV:  cpu time   19.1640: real time   19.2126
       DOS:  cpu time    0.0040: real time    0.0010
    --------------------------------------------
      LOOP:  cpu time   19.1680: real time   19.2145

 eigenvalue-minimisations  :  4496
 total energy-change (2. order) :-0.4007404E+04  (-0.3696997E+04)
 number of electron     640.0000000 magnetization 
 augmentation part      640.0000000 magnetization 

 Free energy of the ion-electron system (eV)
  ---------------------------------------------------
  alpha Z        PSCENC =      1567.72816801
  Ewald energy   TEWEN  =    192732.61904243
  -Hartree energ DENC   =   -242331.99977717
  -exchange      EXHF   =         0.00000000
  -V(xc)+E(xc)   XCENC  =       217.47649449
  PAW double counting   =     44551.90626740   -42741.77887881
  entropy T*S    EENTRO =        -0.01388783
  eigenvalues    EBANDS =      -758.58444034
  atomic energy  EATOM  =     46663.16491575
  Solvation  Ediel_sol  =         0.00000000
  ---------------------------------------------------
  free energy    TOTEN  =       -99.48209608 eV

  energy without entropy =      -99.46820825  energy(sigma->0) =      -99.47862412


--------------------------------------------------------------------------------------------------------




----------------------------------------- Iteration    1(   3)  ---------------------------------------


     EDDAV:  cpu time   21.0520: real time   21.1042
       DOS:  cpu time    0.0000: real time    0.0010
    --------------------------------------------
      LOOP:  cpu time   21.0520: real time   21.1063

 eigenvalue-minimisations  :  4576
 total energy-change (2. order) :-0.2826741E+03  (-0.2523032E+03)
 number of electron     640.0000000 magnetization 
 augmentation part      640.0000000 magnetization 

 Free energy of the ion-electron system (eV)
  ---------------------------------------------------
  alpha Z        PSCENC =      1567.72816801
  Ewald energy   TEWEN  =    192732.61904243
  -Hartree energ DENC   =   -242331.99977717
  -exchange      EXHF   =         0.00000000
  -V(xc)+E(xc)   XCENC  =       217.47649449
  PAW double counting   =     44551.90626740   -42741.77887881
  entropy T*S    EENTRO =         0.10844361
  eigenvalues    EBANDS =     -1041.38086083
  atomic energy  EATOM  =     46663.16491575
  Solvation  Ediel_sol  =         0.00000000
  ---------------------------------------------------
  free energy    TOTEN  =      -382.15618513 eV

  energy without entropy =     -382.26462874  energy(sigma->0) =     -382.18329603


--------------------------------------------------------------------------------------------------------




----------------------------------------- Iteration    1(   4)  ---------------------------------------


     EDDAV:  cpu time   21.5920: real time   21.6403
       DOS:  cpu time    0.0000: real time    0.0010
    --------------------------------------------
      LOOP:  cpu time   21.5920: real time   21.6425

 eigenvalue-minimisations  :  5088
 total energy-change (2. order) :-0.1286348E+02  (-0.1228042E+02)
 number of electron     640.0000000 magnetization 
 augmentation part      640.0000000 magnetization 

 Free energy of the ion-electron system (eV)
  ---------------------------------------------------
  alpha Z        PSCENC =      1567.72816801
  Ewald energy   TEWEN  =    192732.61904243
  -Hartree energ DENC   =   -242331.99977717
  -exchange      EXHF   =         0.00000000
  -V(xc)+E(xc)   XCENC  =       217.47649449
  PAW double counting   =     44551.90626740   -42741.77887881
  entropy T*S    EENTRO =         0.12267112
  eigenvalues    EBANDS =     -1054.25856374
  atomic energy  EATOM  =     46663.16491575
  Solvation  Ediel_sol  =         0.00000000
  ---------------------------------------------------
  free energy    TOTEN  =      -395.01966052 eV

  energy without entropy =     -395.14233164  energy(sigma->0) =     -395.05032830


--------------------------------------------------------------------------------------------------------




----------------------------------------- Iteration    1(   5)  ---------------------------------------


     EDDAV:  cpu time   20.1480: real time   20.1958
       DOS:  cpu time    0.0000: real time    0.0010
    CHARGE:  cpu time    1.0520: real time    1.0547
    MIXING:  cpu time    0.0080: real time    0.0061
    --------------------------------------------
      LOOP:  cpu time   21.2080: real time   21.2588

 eigenvalue-minimisations  :  4720
 total energy-change (2. order) :-0.3026025E+00  (-0.3014272E+00)
 number of electron     640.0000245 magnetization 
 augmentation part      186.5185020 magnetization 

 Broyden mixing:
  rms(total) = 0.83539E+01    rms(broyden)= 0.83539E+01
  rms(prec ) = 0.84589E+01
  weight for this iteration     100.00

 Free energy of the ion-electron system (eV)
  ---------------------------------------------------
  alpha Z        PSCENC =      1567.72816801
  Ewald energy   TEWEN  =    192732.61904243
  -Hartree energ DENC   =   -242331.99977717
  -exchange      EXHF   =         0.00000000
  -V(xc)+E(xc)   XCENC  =       217.47649449
  PAW double counting   =     44551.90626740   -42741.77887881
  entropy T*S    EENTRO =         0.12186777
  eigenvalues    EBANDS =     -1054.56036287
  atomic energy  EATOM  =     46663.16491575
  Solvation  Ediel_sol  =         0.00000000
  ---------------------------------------------------
  free energy    TOTEN  =      -395.32226301 eV

  energy without entropy =     -395.44413078  energy(sigma->0) =     -395.35272995


--------------------------------------------------------------------------------------------------------




----------------------------------------- Iteration    1(   6)  ---------------------------------------


    POTLOK:  cpu time    0.1040: real time    0.1059
    SETDIJ:  cpu time    0.0120: real time    0.0132
    EDDIAG:  cpu time    3.2880: real time    3.2959
  RMM-DIIS:  cpu time    8.9560: real time    8.9752
    ORTHCH:  cpu time    0.8840: real time    0.8871
       DOS:  cpu time    0.0000: real time    0.0009
    CHARGE:  cpu time    1.0480: real time    1.0490
    MIXING:  cpu time    0.0040: real time    0.0054
    --------------------------------------------
      LOOP:  cpu time   14.2960: real time   14.3342

 eigenvalue-minimisations  :  3860
 total energy-change (2. order) : 0.1648313E+02  (-0.6186170E+01)
 number of electron     640.0000336 magnetization 
 augmentation part      196.4426751 magnetization 

 Broyden mixing:
  rms(total) = 0.57296E+01    rms(broyden)= 0.57295E+01
  rms(prec ) = 0.59808E+01
  weight for this iteration     100.00

 eigenvalues of (default mixing * dielectric matrix)
  average eigenvalue GAMMA=   1.5108
  1.5108

 Free energy of the ion-electron system (eV)
  ---------------------------------------------------
  alpha Z        PSCENC =      1567.72816801
  Ewald energy   TEWEN  =    192732.61904243
  -Hartree energ DENC   =   -241617.22601189
  -exchange      EXHF   =         0.00000000
  -V(xc)+E(xc)   XCENC  =       200.88910793
  PAW double counting   =     49169.18260691   -47452.28468464
  entropy T*S    EENTRO =        -0.09431115
  eigenvalues    EBANDS =     -1642.81796855
  atomic energy  EATOM  =     46663.16491575
  Solvation  Ediel_sol  =         0.00000000
  ---------------------------------------------------
  free energy    TOTEN  =      -378.83913521 eV

  energy without entropy =     -378.74482406  energy(sigma->0) =     -378.81555742


--------------------------------------------------------------------------------------------------------




----------------------------------------- Iteration    1(   7)  ---------------------------------------


    POTLOK:  cpu time    0.1280: real time    0.1263
    SETDIJ:  cpu time    0.0120: real time    0.0129
    EDDIAG:  cpu time    3.3000: real time    3.3080
  RMM-DIIS:  cpu time    8.8560: real time    8.8755
    ORTHCH:  cpu time    0.8840: real time    0.8878
       DOS:  cpu time    0.0000: real time    0.0010
    CHARGE:  cpu time    1.0480: real time    1.0485
    MIXING:  cpu time    0.0040: real time    0.0041
    --------------------------------------------
      LOOP:  cpu time   14.2320: real time   14.2675

 eigenvalue-minimisations  :  3861
 total energy-change (2. order) :-0.8416404E+02  (-0.1433984E+02)
 number of electron     640.0000187 magnetization 
 augmentation part      193.8544138 magnetization 

 Broyden mixing:
  rms(total) = 0.77070E+01    rms(broyden)= 0.77068E+01
  rms(prec ) = 0.92474E+01
  weight for this iteration     100.00

 eigenvalues of (default mixing * dielectric matrix)
  average eigenvalue GAMMA=   1.2206
  2.1659  0.2753

 Free energy of the ion-electron system (eV)
  ---------------------------------------------------
  alpha Z        PSCENC =      1567.72816801
  Ewald energy   TEWEN  =    192732.61904243
  -Hartree energ DENC   =   -242129.12934925
  -exchange      EXHF   =         0.00000000
  -V(xc)+E(xc)   XCENC  =       194.88153951
  PAW double counting   =     53023.62018848   -51352.53894342
  entropy T*S    EENTRO =         0.11305554
  eigenvalues    EBANDS =     -1163.46178775
  atomic energy  EATOM  =     46663.16491575
  Solvation  Ediel_sol  =         0.00000000
  ---------------------------------------------------
  free energy    TOTEN  =      -463.00317070 eV

  energy without entropy =     -463.11622624  energy(sigma->0) =     -463.03143459


--------------------------------------------------------------------------------------------------------




----------------------------------------- Iteration    1(   8)  ---------------------------------------


    POTLOK:  cpu time    0.0960: real time    0.0958
    SETDIJ:  cpu time    0.0120: real time    0.0123
    EDDIAG:  cpu time    3.0240: real time    3.0342
  RMM-DIIS:  cpu time    7.7600: real time    7.7776
    ORTHCH:  cpu time    0.8440: real time    0.8447
       DOS:  cpu time    0.0000: real time    0.0009
    CHARGE:  cpu time    0.9000: real time    0.9005
    MIXING:  cpu time    0.0040: real time    0.0049
    --------------------------------------------
      LOOP:  cpu time   12.6400: real time   12.6722

 eigenvalue-minimisations  :  3861
 total energy-change (2. order) : 0.8653146E+02  (-0.4784858E+01)
 number of electron     640.0000257 magnetization 
 augmentation part      200.1362968 magnetization 

 Broyden mixing:
  rms(total) = 0.22459E+01    rms(broyden)= 0.22457E+01
  rms(prec ) = 0.27128E+01
  weight for this iteration     100.00

 eigenvalues of (default mixing * dielectric matrix)
  average eigenvalue GAMMA=   1.0406
  2.0768  0.7274  0.3178

 Free energy of the ion-electron system (eV)
  ---------------------------------------------------
  alpha Z        PSCENC =      1567.72816801
  Ewald energy   TEWEN  =    192732.61904243
  -Hartree energ DENC   =   -241598.22446418
  -exchange      EXHF   =         0.00000000
  -V(xc)+E(xc)   XCENC  =       191.59958229
  PAW double counting   =     56041.86780659   -54412.20904117
  entropy T*S    EENTRO =         0.04429109
  eigenvalues    EBANDS =     -1563.06201596
  atomic energy  EATOM  =     46663.16491575
  Solvation  Ediel_sol  =         0.00000000
  ---------------------------------------------------
  free energy    TOTEN  =      -376.47171516 eV

  energy without entropy =     -376.51600626  energy(sigma->0) =     -376.48278794


--------------------------------------------------------------------------------------------------------




----------------------------------------- Iteration    1(   9)  ---------------------------------------


    POTLOK:  cpu time    0.1000: real time    0.1013
    SETDIJ:  cpu time    0.0120: real time    0.0122
    EDDIAG:  cpu time    3.0120: real time    3.0178
  RMM-DIIS:  cpu time    7.6840: real time    7.7033
    ORTHCH:  cpu time    0.8400: real time    0.8441
       DOS:  cpu time    0.0040: real time    0.0009
    CHARGE:  cpu time    1.1200: real time    1.1251
    MIXING:  cpu time    0.0040: real time    0.0046
    --------------------------------------------
      LOOP:  cpu time   12.7760: real time   12.8110

 eigenvalue-minimisations  :  3860
 total energy-change (2. order) :-0.1512196E+02  (-0.2944047E+01)
 number of electron     640.0000285 magnetization 
 augmentation part      199.3155186 magnetization 

 Broyden mixing:
  rms(total) = 0.43916E+01    rms(broyden)= 0.43914E+01
  rms(prec ) = 0.61843E+01
  weight for this iteration     100.00

 eigenvalues of (default mixing * dielectric matrix)
  average eigenvalue GAMMA=   0.9155
  2.0938  1.0937  0.3004  0.1741

 Free energy of the ion-electron system (eV)
  ---------------------------------------------------
  alpha Z        PSCENC =      1567.72816801
  Ewald energy   TEWEN  =    192732.61904243
  -Hartree energ DENC   =   -241577.46568237
  -exchange      EXHF   =         0.00000000
  -V(xc)+E(xc)   XCENC  =       193.37699149
  PAW double counting   =     56153.06154168   -54519.41253353
  entropy T*S    EENTRO =        -0.03263875
  eigenvalues    EBANDS =     -1604.63347968
  atomic energy  EATOM  =     46663.16491575
  Solvation  Ediel_sol  =         0.00000000
  ---------------------------------------------------
  free energy    TOTEN  =      -391.59367496 eV

  energy without entropy =     -391.56103622  energy(sigma->0) =     -391.58551528


--------------------------------------------------------------------------------------------------------




----------------------------------------- Iteration    1(  10)  ---------------------------------------


    POTLOK:  cpu time    0.1000: real time    0.1025
    SETDIJ:  cpu time    0.0120: real time    0.0124
    EDDIAG:  cpu time    3.2640: real time    3.2737
  RMM-DIIS:  cpu time    8.7520: real time    8.7765
    ORTHCH:  cpu time    0.8880: real time    0.8867
       DOS:  cpu time    0.0000: real time    0.0009
    CHARGE:  cpu time    1.0920: real time    1.0958
    MIXING:  cpu time    0.0040: real time    0.0049
    --------------------------------------------
      LOOP:  cpu time   14.1200: real time   14.1550

 eigenvalue-minimisations  :  3865
 total energy-change (2. order) : 0.6030994E+01  (-0.1024932E+01)
 number of electron     640.0000360 magnetization 
 augmentation part      199.1566088 magnetization 

 Broyden mixing:
  rms(total) = 0.38873E+01    rms(broyden)= 0.38871E+01
  rms(prec ) = 0.55235E+01
  weight for this iteration     100.00

 eigenvalues of (default mixing * dielectric matrix)
  average eigenvalue GAMMA=   0.7954
  2.1652  1.1929  0.2575  0.2575  0.1040

 Free energy of the ion-electron system (eV)
  ---------------------------------------------------
  alpha Z        PSCENC =      1567.72816801
  Ewald energy   TEWEN  =    192732.61904243
  -Hartree energ DENC   =   -241597.55966139
  -exchange      EXHF   =         0.00000000
  -V(xc)+E(xc)   XCENC  =       194.29178540
  PAW double counting   =     56363.96829898   -54729.25674166
  entropy T*S    EENTRO =         0.06833578
  eigenvalues    EBANDS =     -1580.58682386
  atomic energy  EATOM  =     46663.16491575
  Solvation  Ediel_sol  =         0.00000000
  ---------------------------------------------------
  free energy    TOTEN  =      -385.56268057 eV

  energy without entropy =     -385.63101635  energy(sigma->0) =     -385.57976452


--------------------------------------------------------------------------------------------------------




----------------------------------------- Iteration    1(  11)  ---------------------------------------


    POTLOK:  cpu time    0.1000: real time    0.0977
    SETDIJ:  cpu time    0.0120: real time    0.0127
    EDDIAG:  cpu time    3.2760: real time    3.2837
  RMM-DIIS:  cpu time    8.7960: real time    8.8177
    ORTHCH:  cpu time    0.8760: real time    0.8806
       DOS:  cpu time    0.0040: real time    0.0011
    CHARGE:  cpu time    1.0640: real time    1.0675
    MIXING:  cpu time    0.0040: real time    0.0053
    --------------------------------------------
      LOOP:  cpu time   14.1320: real time   14.1676

 eigenvalue-minimisations  :  3861
 total energy-change (2. order) : 0.1219444E+02  (-0.3557842E+00)
 number of electron     640.0000296 magnetization 
 augmentation part      198.8538162 magnetization 

 Broyden mixing:
  rms(total) = 0.17414E+01    rms(broyden)= 0.17413E+01
  rms(prec ) = 0.20573E+01
  weight for this iteration     100.00

 eigenvalues of (default mixing * dielectric matrix)
  average eigenvalue GAMMA=   0.7156
  2.1527  1.1962  0.2886  0.2796  0.2796  0.0972

 Free energy of the ion-electron system (eV)
  ---------------------------------------------------
  alpha Z        PSCENC =      1567.72816801
  Ewald energy   TEWEN  =    192732.61904243
  -Hartree energ DENC   =   -241613.70637815
  -exchange      EXHF   =         0.00000000
  -V(xc)+E(xc)   XCENC  =       194.49511874
  PAW double counting   =     56611.77294554   -54978.48376320
  entropy T*S    EENTRO =         0.04347486
  eigenvalues    EBANDS =     -1551.00176707
  atomic energy  EATOM  =     46663.16491575
  Solvation  Ediel_sol  =         0.00000000
  ---------------------------------------------------
  free energy    TOTEN  =      -373.36824310 eV

  energy without entropy =     -373.41171796  energy(sigma->0) =     -373.37911182


--------------------------------------------------------------------------------------------------------




----------------------------------------- Iteration    1(  12)  ---------------------------------------


    POTLOK:  cpu time    0.1000: real time    0.0999
    SETDIJ:  cpu time    0.0120: real time    0.0126
    EDDIAG:  cpu time    3.2040: real time    3.2109
  RMM-DIIS:  cpu time    7.1640: real time    7.1821
    ORTHCH:  cpu time    0.8520: real time    0.8525
       DOS:  cpu time    0.0000: real time    0.0009
    CHARGE:  cpu time    0.9840: real time    0.9844
    MIXING:  cpu time    0.0040: real time    0.0055
    --------------------------------------------
      LOOP:  cpu time   12.3200: real time   12.3503

 eigenvalue-minimisations  :  3861
 total energy-change (2. order) : 0.1152199E+01  (-0.2200844E+00)
 number of electron     640.0000302 magnetization 
 augmentation part      198.8031811 magnetization 

 Broyden mixing:
  rms(total) = 0.12849E+01    rms(broyden)= 0.12848E+01
  rms(prec ) = 0.14869E+01
  weight for this iteration     100.00

 eigenvalues of (default mixing * dielectric matrix)
  average eigenvalue GAMMA=   0.6706
  2.1214  0.9964  0.5983  0.3668  0.3448  0.1710  0.0955

 Free energy of the ion-electron system (eV)
  ---------------------------------------------------
  alpha Z        PSCENC =      1567.72816801
  Ewald energy   TEWEN  =    192732.61904243
  -Hartree energ DENC   =   -241613.51376829
  -exchange      EXHF   =         0.00000000
  -V(xc)+E(xc)   XCENC  =       194.50245607
  PAW double counting   =     56610.39269942   -54977.15700469
  entropy T*S    EENTRO =         0.06188321
  eigenvalues    EBANDS =     -1550.01443622
  atomic energy  EATOM  =     46663.16491575
  Solvation  Ediel_sol  =         0.00000000
  ---------------------------------------------------
  free energy    TOTEN  =      -372.21604432 eV

  energy without entropy =     -372.27792752  energy(sigma->0) =     -372.23151512


--------------------------------------------------------------------------------------------------------




----------------------------------------- Iteration    1(  13)  ---------------------------------------


    POTLOK:  cpu time    0.0960: real time    0.0936
    SETDIJ:  cpu time    0.0080: real time    0.0120
    EDDIAG:  cpu time    2.9800: real time    2.9844
  RMM-DIIS:  cpu time    7.9520: real time    7.9707
    ORTHCH:  cpu time    0.8360: real time    0.8397
       DOS:  cpu time    0.0000: real time    0.0009
    CHARGE:  cpu time    0.9440: real time    0.9458
    MIXING:  cpu time    0.0080: real time    0.0056
    --------------------------------------------
      LOOP:  cpu time   12.8240: real time   12.8541

 eigenvalue-minimisations  :  3866
 total energy-change (2. order) : 0.9296400E+00  (-0.1151845E+00)
 number of electron     640.0000294 magnetization 
 augmentation part      198.8727205 magnetization 

 Broyden mixing:
  rms(total) = 0.69361E+00    rms(broyden)= 0.69356E+00
  rms(prec ) = 0.82540E+00
  weight for this iteration     100.00

 eigenvalues of (default mixing * dielectric matrix)
  average eigenvalue GAMMA=   0.6444
  2.1660  0.9902  0.5520  0.5520  0.3103  0.3103  0.1788  0.0961

 Free energy of the ion-electron system (eV)
  ---------------------------------------------------
  alpha Z        PSCENC =      1567.72816801
  Ewald energy   TEWEN  =    192732.61904243
  -Hartree energ DENC   =   -241616.36861922
  -exchange      EXHF   =         0.00000000
  -V(xc)+E(xc)   XCENC  =       194.36515856
  PAW double counting   =     56550.95698439   -54917.77860824
  entropy T*S    EENTRO =         0.06187113
  eigenvalues    EBANDS =     -1546.03531715
  atomic energy  EATOM  =     46663.16491575
  Solvation  Ediel_sol  =         0.00000000
  ---------------------------------------------------
  free energy    TOTEN  =      -371.28640436 eV

  energy without entropy =     -371.34827548  energy(sigma->0) =     -371.30187214


--------------------------------------------------------------------------------------------------------




----------------------------------------- Iteration    1(  14)  ---------------------------------------


    POTLOK:  cpu time    0.0920: real time    0.0934
    SETDIJ:  cpu time    0.0120: real time    0.0120
    EDDIAG:  cpu time    2.9560: real time    2.9625
  RMM-DIIS:  cpu time    7.9520: real time    7.9722
    ORTHCH:  cpu time    0.8400: real time    0.8404
       DOS:  cpu time    0.0000: real time    0.0009
    CHARGE:  cpu time    0.9400: real time    0.9413
    MIXING:  cpu time    0.0040: real time    0.0062
    --------------------------------------------
      LOOP:  cpu time   12.7960: real time   12.8304

 eigenvalue-minimisations  :  3866
 total energy-change (2. order) : 0.3259368E+00  (-0.3829611E-01)
 number of electron     640.0000287 magnetization 
 augmentation part      198.8479866 magnetization 

 Broyden mixing:
  rms(total) = 0.45089E+00    rms(broyden)= 0.45087E+00
  rms(prec ) = 0.51951E+00
  weight for this iteration     100.00

 eigenvalues of (default mixing * dielectric matrix)
  average eigenvalue GAMMA=   0.6600
  2.2041  1.0568  0.7347  0.7347  0.3306  0.3306  0.2801  0.1723  0.0961

 Free energy of the ion-electron system (eV)
  ---------------------------------------------------
  alpha Z        PSCENC =      1567.72816801
  Ewald energy   TEWEN  =    192732.61904243
  -Hartree energ DENC   =   -241623.52142524
  -exchange      EXHF   =         0.00000000
  -V(xc)+E(xc)   XCENC  =       194.33971038
  PAW double counting   =     56599.15096228   -54966.52906667
  entropy T*S    EENTRO =         0.08351897
  eigenvalues    EBANDS =     -1537.99629344
  atomic energy  EATOM  =     46663.16491575
  Solvation  Ediel_sol  =         0.00000000
  ---------------------------------------------------
  free energy    TOTEN  =      -370.96046753 eV

  energy without entropy =     -371.04398650  energy(sigma->0) =     -370.98134728


--------------------------------------------------------------------------------------------------------




----------------------------------------- Iteration    1(  15)  ---------------------------------------


    POTLOK:  cpu time    0.0960: real time    0.0939
    SETDIJ:  cpu time    0.0120: real time    0.0120
    EDDIAG:  cpu time    3.0200: real time    3.0286
  RMM-DIIS:  cpu time    7.9480: real time    7.9690
    ORTHCH:  cpu time    0.8400: real time    0.8391
       DOS:  cpu time    0.0000: real time    0.0010
    CHARGE:  cpu time    0.9480: real time    0.9507
    MIXING:  cpu time    0.0080: real time    0.0061
    --------------------------------------------
      LOOP:  cpu time   12.8720: real time   12.9019

 eigenvalue-minimisations  :  3871
 total energy-change (2. order) : 0.1052303E+00  (-0.1281616E-01)
 number of electron     640.0000285 magnetization 
 augmentation part      198.7939000 magnetization 

 Broyden mixing:
  rms(total) = 0.29362E+00    rms(broyden)= 0.29361E+00
  rms(prec ) = 0.32499E+00
  weight for this iteration     100.00

 eigenvalues of (default mixing * dielectric matrix)
  average eigenvalue GAMMA=   0.6417
  2.1922  1.0416  0.8480  0.8480  0.3390  0.3390  0.2713  0.2713  0.0961  0.1705

 Free energy of the ion-electron system (eV)
  ---------------------------------------------------
  alpha Z        PSCENC =      1567.72816801
  Ewald energy   TEWEN  =    192732.61904243
  -Hartree energ DENC   =   -241633.04348011
  -exchange      EXHF   =         0.00000000
  -V(xc)+E(xc)   XCENC  =       194.37582368
  PAW double counting   =     56637.32622157   -55004.99997769
  entropy T*S    EENTRO =         0.10443892
  eigenvalues    EBANDS =     -1528.13038982
  atomic energy  EATOM  =     46663.16491575
  Solvation  Ediel_sol  =         0.00000000
  ---------------------------------------------------
  free energy    TOTEN  =      -370.85523726 eV

  energy without entropy =     -370.95967618  energy(sigma->0) =     -370.88134699


--------------------------------------------------------------------------------------------------------




----------------------------------------- Iteration    1(  16)  ---------------------------------------


    POTLOK:  cpu time    0.0920: real time    0.0926
    SETDIJ:  cpu time    0.0120: real time    0.0120
    EDDIAG:  cpu time    3.0200: real time    3.0287
  RMM-DIIS:  cpu time    7.9880: real time    8.0048
    ORTHCH:  cpu time    0.8360: real time    0.8391
       DOS:  cpu time    0.0000: real time    0.0010
    CHARGE:  cpu time    0.9440: real time    0.9472
    MIXING:  cpu time    0.0080: real time    0.0067
    --------------------------------------------
      LOOP:  cpu time   12.9000: real time   12.9336

 eigenvalue-minimisations  :  3880
 total energy-change (2. order) : 0.3789896E-01  (-0.5715399E-02)
 number of electron     640.0000283 magnetization 
 augmentation part      198.7732136 magnetization 

 Broyden mixing:
  rms(total) = 0.23175E+00    rms(broyden)= 0.23175E+00
  rms(prec ) = 0.25227E+00
  weight for this iteration     100.00

 eigenvalues of (default mixing * dielectric matrix)
  average eigenvalue GAMMA=   0.6547
  2.1105  1.1145  1.1145  0.9583  0.4011  0.4011  0.3267  0.3267  0.0961  0.1740
  0.1774

 Free energy of the ion-electron system (eV)
  ---------------------------------------------------
  alpha Z        PSCENC =      1567.72816801
  Ewald energy   TEWEN  =    192732.61904243
  -Hartree energ DENC   =   -241637.22733710
  -exchange      EXHF   =         0.00000000
  -V(xc)+E(xc)   XCENC  =       194.41327056
  PAW double counting   =     56631.49608569   -54999.06026618
  entropy T*S    EENTRO =         0.11149171
  eigenvalues    EBANDS =     -1524.06270916
  atomic energy  EATOM  =     46663.16491575
  Solvation  Ediel_sol  =         0.00000000
  ---------------------------------------------------
  free energy    TOTEN  =      -370.81733830 eV

  energy without entropy =     -370.92883001  energy(sigma->0) =     -370.84521123


--------------------------------------------------------------------------------------------------------




----------------------------------------- Iteration    1(  17)  ---------------------------------------


    POTLOK:  cpu time    0.0920: real time    0.0934
    SETDIJ:  cpu time    0.0120: real time    0.0123
    EDDIAG:  cpu time    3.0160: real time    3.0229
  RMM-DIIS:  cpu time    7.1480: real time    7.1626
    ORTHCH:  cpu time    0.7800: real time    0.7815
       DOS:  cpu time    0.0000: real time    0.0010
    CHARGE:  cpu time    0.7320: real time    0.7351
    MIXING:  cpu time    0.0080: real time    0.0063
    --------------------------------------------
      LOOP:  cpu time   11.7880: real time   11.8180

 eigenvalue-minimisations  :  3865
 total energy-change (2. order) :-0.1174574E-01  (-0.3901551E-02)
 number of electron     640.0000283 magnetization 
 augmentation part      198.7599325 magnetization 

 Broyden mixing:
  rms(total) = 0.22677E+00    rms(broyden)= 0.22676E+00
  rms(prec ) = 0.25820E+00
  weight for this iteration     100.00

 eigenvalues of (default mixing * dielectric matrix)
  average eigenvalue GAMMA=   0.7523
  2.2263  2.2263  1.3953  0.7292  0.7292  0.4029  0.3214  0.3214  0.0961  0.2393
  0.1760  0.1646

 Free energy of the ion-electron system (eV)
  ---------------------------------------------------
  alpha Z        PSCENC =      1567.72816801
  Ewald energy   TEWEN  =    192732.61904243
  -Hartree energ DENC   =   -241640.87810892
  -exchange      EXHF   =         0.00000000
  -V(xc)+E(xc)   XCENC  =       194.47824347
  PAW double counting   =     56599.34862733   -54966.51125936
  entropy T*S    EENTRO =         0.10866737
  eigenvalues    EBANDS =     -1520.88738011
  atomic energy  EATOM  =     46663.16491575
  Solvation  Ediel_sol  =         0.00000000
  ---------------------------------------------------
  free energy    TOTEN  =      -370.82908404 eV

  energy without entropy =     -370.93775141  energy(sigma->0) =     -370.85625089


--------------------------------------------------------------------------------------------------------




----------------------------------------- Iteration    1(  18)  ---------------------------------------


    POTLOK:  cpu time    0.0840: real time    0.0830
    SETDIJ:  cpu time    0.0120: real time    0.0121
    EDDIAG:  cpu time    2.6360: real time    2.6439
  RMM-DIIS:  cpu time    7.5840: real time    7.6021
    ORTHCH:  cpu time    0.8200: real time    0.8236
       DOS:  cpu time    0.0000: real time    0.0009
    CHARGE:  cpu time    0.8480: real time    0.8463
    MIXING:  cpu time    0.0040: real time    0.0071
    --------------------------------------------
      LOOP:  cpu time   11.9880: real time   12.0204

 eigenvalue-minimisations  :  3870
 total energy-change (2. order) : 0.8636483E-03  (-0.2450640E-02)
 number of electron     640.0000284 magnetization 
 augmentation part      198.7384850 magnetization 

 Broyden mixing:
  rms(total) = 0.17911E+00    rms(broyden)= 0.17911E+00
  rms(prec ) = 0.20918E+00
  weight for this iteration     100.00

 eigenvalues of (default mixing * dielectric matrix)
  average eigenvalue GAMMA=   0.7555
  2.1260  2.1260  1.4820  1.1409  0.6439  0.6439  0.3281  0.3281  0.3163  0.2535
  0.0961  0.1728  0.1633

 Free energy of the ion-electron system (eV)
  ---------------------------------------------------
  alpha Z        PSCENC =      1567.72816801
  Ewald energy   TEWEN  =    192732.61904243
  -Hartree energ DENC   =   -241648.41882345
  -exchange      EXHF   =         0.00000000
  -V(xc)+E(xc)   XCENC  =       194.64031493
  PAW double counting   =     56512.14257304   -54878.24247393
  entropy T*S    EENTRO =         0.10278975
  eigenvalues    EBANDS =     -1514.56472691
  atomic energy  EATOM  =     46663.16491575
  Solvation  Ediel_sol  =         0.00000000
  ---------------------------------------------------
  free energy    TOTEN  =      -370.82822039 eV

  energy without entropy =     -370.93101014  energy(sigma->0) =     -370.85391783


--------------------------------------------------------------------------------------------------------




----------------------------------------- Iteration    1(  19)  ---------------------------------------


    POTLOK:  cpu time    0.0880: real time    0.0876
    SETDIJ:  cpu time    0.0120: real time    0.0120
    EDDIAG:  cpu time    3.0000: real time    3.0070
  RMM-DIIS:  cpu time    7.7440: real time    7.7607
    ORTHCH:  cpu time    0.8440: real time    0.8488
       DOS:  cpu time    0.0040: real time    0.0009
    CHARGE:  cpu time    0.8920: real time    0.8949
    MIXING:  cpu time    0.0080: real time    0.0080
    --------------------------------------------
      LOOP:  cpu time   12.5920: real time   12.6214

 eigenvalue-minimisations  :  3864
 total energy-change (2. order) : 0.1375467E-01  (-0.3776535E-02)
 number of electron     640.0000284 magnetization 
 augmentation part      198.7197382 magnetization 

 Broyden mixing:
  rms(total) = 0.15122E+00    rms(broyden)= 0.15121E+00
  rms(prec ) = 0.17609E+00
  weight for this iteration     100.00

 eigenvalues of (default mixing * dielectric matrix)
  average eigenvalue GAMMA=   0.7317
  2.1813  1.7497  1.7497  1.0468  0.7692  0.7692  0.3316  0.3316  0.3546  0.0961
  0.2865  0.2415  0.1726  0.1629

 Free energy of the ion-electron system (eV)
  ---------------------------------------------------
  alpha Z        PSCENC =      1567.72816801
  Ewald energy   TEWEN  =    192732.61904243
  -Hartree energ DENC   =   -241652.44164571
  -exchange      EXHF   =         0.00000000
  -V(xc)+E(xc)   XCENC  =       194.64907160
  PAW double counting   =     56566.18815270   -54932.73504898
  entropy T*S    EENTRO =         0.10845096
  eigenvalues    EBANDS =     -1510.09557247
  atomic energy  EATOM  =     46663.16491575
  Solvation  Ediel_sol  =         0.00000000
  ---------------------------------------------------
  free energy    TOTEN  =      -370.81446572 eV

  energy without entropy =     -370.92291669  energy(sigma->0) =     -370.84157846


--------------------------------------------------------------------------------------------------------




----------------------------------------- Iteration    1(  20)  ---------------------------------------


    POTLOK:  cpu time    0.0920: real time    0.0941
    SETDIJ:  cpu time    0.0120: real time    0.0121
    EDDIAG:  cpu time    3.0240: real time    3.0302
  RMM-DIIS:  cpu time    7.7360: real time    7.7541
    ORTHCH:  cpu time    0.8480: real time    0.8503
       DOS:  cpu time    0.0000: real time    0.0009
    CHARGE:  cpu time    0.9280: real time    0.9311
    MIXING:  cpu time    0.0080: real time    0.0082
    --------------------------------------------
      LOOP:  cpu time   12.6480: real time   12.6825

 eigenvalue-minimisations  :  3863
 total energy-change (2. order) : 0.1691465E-01  (-0.1703668E-02)
 number of electron     640.0000283 magnetization 
 augmentation part      198.7159504 magnetization 

 Broyden mixing:
  rms(total) = 0.46253E-01    rms(broyden)= 0.46244E-01
  rms(prec ) = 0.55726E-01
  weight for this iteration     100.00

 eigenvalues of (default mixing * dielectric matrix)
  average eigenvalue GAMMA=   0.6983
  2.1275  1.7654  1.7654  0.8904  0.8282  0.8282  0.4119  0.3275  0.3275  0.0961
  0.3008  0.2439  0.2271  0.1721  0.1630

 Free energy of the ion-electron system (eV)
  ---------------------------------------------------
  alpha Z        PSCENC =      1567.72816801
  Ewald energy   TEWEN  =    192732.61904243
  -Hartree energ DENC   =   -241655.55193175
  -exchange      EXHF   =         0.00000000
  -V(xc)+E(xc)   XCENC  =       194.63306585
  PAW double counting   =     56595.69007984   -54962.54459775
  entropy T*S    EENTRO =         0.11727867
  eigenvalues    EBANDS =     -1506.65357212
  atomic energy  EATOM  =     46663.16491575
  Solvation  Ediel_sol  =         0.00000000
  ---------------------------------------------------
  free energy    TOTEN  =      -370.79755108 eV

  energy without entropy =     -370.91482974  energy(sigma->0) =     -370.82687074


--------------------------------------------------------------------------------------------------------




----------------------------------------- Iteration    1(  21)  ---------------------------------------


    POTLOK:  cpu time    0.0960: real time    0.0966
    SETDIJ:  cpu time    0.0120: real time    0.0124
    EDDIAG:  cpu time    3.0200: real time    3.0278
  RMM-DIIS:  cpu time    8.0920: real time    8.1128
    ORTHCH:  cpu time    0.8520: real time    0.8538
       DOS:  cpu time    0.0000: real time    0.0010
    CHARGE:  cpu time    0.9200: real time    0.9205
    MIXING:  cpu time    0.0080: real time    0.0091
    --------------------------------------------
      LOOP:  cpu time   13.0040: real time   13.0355

 eigenvalue-minimisations  :  4031
 total energy-change (2. order) : 0.9197370E-03  (-0.1815674E-03)
 number of electron     640.0000282 magnetization 
 augmentation part      198.7159898 magnetization 

 Broyden mixing:
  rms(total) = 0.30546E-01    rms(broyden)= 0.30545E-01
  rms(prec ) = 0.37768E-01
  weight for this iteration     100.00

 eigenvalues of (default mixing * dielectric matrix)
  average eigenvalue GAMMA=   0.7227
  2.1881  2.1881  1.3990  1.1656  1.1656  0.6669  0.6669  0.3336  0.3336  0.3240
  0.0961  0.2906  0.2426  0.1720  0.1628  0.1683

 Free energy of the ion-electron system (eV)
  ---------------------------------------------------
  alpha Z        PSCENC =      1567.72816801
  Ewald energy   TEWEN  =    192732.61904243
  -Hartree energ DENC   =   -241656.22284764
  -exchange      EXHF   =         0.00000000
  -V(xc)+E(xc)   XCENC  =       194.63548125
  PAW double counting   =     56595.83768235   -54962.68338999
  entropy T*S    EENTRO =         0.11779594
  eigenvalues    EBANDS =     -1505.99347944
  atomic energy  EATOM  =     46663.16491575
  Solvation  Ediel_sol  =         0.00000000
  ---------------------------------------------------
  free energy    TOTEN  =      -370.79663134 eV

  energy without entropy =     -370.91442728  energy(sigma->0) =     -370.82608033


--------------------------------------------------------------------------------------------------------




----------------------------------------- Iteration    1(  22)  ---------------------------------------


    POTLOK:  cpu time    0.0960: real time    0.0941
    SETDIJ:  cpu time    0.0120: real time    0.0122
    EDDIAG:  cpu time    3.0080: real time    3.0168
  RMM-DIIS:  cpu time    7.7600: real time    7.7778
    ORTHCH:  cpu time    0.8480: real time    0.8513
       DOS:  cpu time    0.0000: real time    0.0010
    CHARGE:  cpu time    0.9560: real time    0.9564
    MIXING:  cpu time    0.0080: real time    0.0084
    --------------------------------------------
      LOOP:  cpu time   12.6880: real time   12.7196

 eigenvalue-minimisations  :  3873
 total energy-change (2. order) : 0.6693412E-03  (-0.7370220E-04)
 number of electron     640.0000282 magnetization 
 augmentation part      198.7128336 magnetization 

 Broyden mixing:
  rms(total) = 0.22743E-01    rms(broyden)= 0.22743E-01
  rms(prec ) = 0.26998E-01
  weight for this iteration     100.00

 eigenvalues of (default mixing * dielectric matrix)
  average eigenvalue GAMMA=   0.7431
  2.3591  2.3591  1.3364  1.3364  1.3250  0.6799  0.6799  0.3882  0.3882  0.3289
  0.3289  0.0961  0.2835  0.2435  0.1727  0.1643  0.1623

 Free energy of the ion-electron system (eV)
  ---------------------------------------------------
  alpha Z        PSCENC =      1567.72816801
  Ewald energy   TEWEN  =    192732.61904243
  -Hartree energ DENC   =   -241657.97684686
  -exchange      EXHF   =         0.00000000
  -V(xc)+E(xc)   XCENC  =       194.64588340
  PAW double counting   =     56595.58990851   -54962.38836091
  entropy T*S    EENTRO =         0.11844129
  eigenvalues    EBANDS =     -1504.29711362
  atomic energy  EATOM  =     46663.16491575
  Solvation  Ediel_sol  =         0.00000000
  ---------------------------------------------------
  free energy    TOTEN  =      -370.79596200 eV

  energy without entropy =     -370.91440329  energy(sigma->0) =     -370.82557232


--------------------------------------------------------------------------------------------------------




----------------------------------------- Iteration    1(  23)  ---------------------------------------


    POTLOK:  cpu time    0.0960: real time    0.0976
    SETDIJ:  cpu time    0.0160: real time    0.0126
    EDDIAG:  cpu time    3.0080: real time    3.0188
  RMM-DIIS:  cpu time    7.8160: real time    7.8336
    ORTHCH:  cpu time    0.8440: real time    0.8465
       DOS:  cpu time    0.0000: real time    0.0009
    CHARGE:  cpu time    0.9560: real time    0.9552
    MIXING:  cpu time    0.0080: real time    0.0089
    --------------------------------------------
      LOOP:  cpu time   12.7440: real time   12.7756

 eigenvalue-minimisations  :  3868
 total energy-change (2. order) : 0.8856807E-04  (-0.3558181E-04)
 number of electron     640.0000283 magnetization 
 augmentation part      198.7107573 magnetization 

 Broyden mixing:
  rms(total) = 0.19363E-01    rms(broyden)= 0.19363E-01
  rms(prec ) = 0.23314E-01
  weight for this iteration     100.00

 eigenvalues of (default mixing * dielectric matrix)
  average eigenvalue GAMMA=   0.7692
  2.4105  2.4105  1.5573  1.5573  1.3180  0.7335  0.7335  0.7096  0.3598  0.3303
  0.3303  0.0961  0.2799  0.2799  0.2417  0.1725  0.1637  0.1619

 Free energy of the ion-electron system (eV)
  ---------------------------------------------------
  alpha Z        PSCENC =      1567.72816801
[...]
   Pt        510.016         15.554         39.186          0.988
   Pt        509.606         15.553         39.158          0.987
   Pt        509.704         15.553         39.165          0.987
   Pt        509.712         15.552         39.168          0.987
   Pt        510.150         15.554         39.196          0.988
   Pt        509.945         15.554         39.181          0.987
   Pt        509.748         15.553         39.169          0.987
   Pt        509.659         15.552         39.163          0.987
   Pt        510.385         15.555         39.212          0.988

  Number of pair interactions contributing to vdW energy:  437143
  Edisp (eV):  -19.00577
    FORVDW:  cpu time    2.3840: real time    2.3878

  FORCE on cell =-STRESS in cart. coord.  units (eV):
  Direction    XX          YY          ZZ          XY          YZ          ZX
  --------------------------------------------------------------------------------------
  Alpha Z  1567.72817  1567.72817  1567.72817
  Ewald  228217.49881228209.89315************   -13.92843     3.91650   -13.60680
  Hartree238963.12513238960.81886************    -4.21642     0.91066    -3.14550
  E(xc)   -2831.64871 -2831.69868 -2850.66092    -0.09149     0.02507    -0.09149
  Local  ************************487845.84346    15.39147    -3.77599    13.00115
  n-local   297.87528   297.26890   263.23336    -0.99188     0.39275    -1.44390
  augment  3336.76112  3337.45594  3434.28193     1.28049    -0.47445     1.68612
  Kinetic  9217.16066  9218.47784  9477.11820     2.43730    -0.88922     3.18152
  Fock        0.00000     0.00000     0.00000     0.00000     0.00000     0.00000
  vdW       -22.75318   -22.75480   -15.92294    -0.00233     0.00083    -0.00289
  -------------------------------------------------------------------------------------
  Total     -77.89724   -78.03784    -1.61955    -0.12130     0.10615    -0.42178
  in kB     -50.25203   -50.34273    -1.04478    -0.07825     0.06848    -0.27209
  external pressure =      -33.88 kB  Pullay stress =        0.00 kB


 VOLUME and BASIS-vectors are now :
 -----------------------------------------------------------------------------
  energy-cutoff  :      400.00
  volume of cell :     2483.59
      direct lattice vectors                 reciprocal lattice vectors
    11.200000000  0.000000000  0.000000000     0.089285714  0.051549131  0.000000000
    -5.600000000  9.699484522  0.000000000     0.000000000  0.103098262  0.000000000
     0.000000000  0.000000000 22.861904266     0.000000000  0.000000000  0.043740888

  length of vectors
    11.200000000 11.200000000 22.861904266     0.103098262  0.103098262  0.043740888


 FORCES acting on ions
    electron-ion (+dipol)            ewald-force                    non-local-force                 convergence-correction
 -----------------------------------------------------------------------------------------------
   -.264E-01 -.145E-01 0.240E+04   0.118E-01 0.179E-01 -.240E+04   0.448E-02 -.139E-02 -.115E+01   0.295E-02 0.636E-03 -.637E-02
   -.432E-01 0.122E-01 0.240E+04   0.312E-01 -.628E-02 -.240E+04   0.437E-02 -.148E-02 -.115E+01   0.781E-03 -.186E-02 -.288E-02
   -.285E-03 0.156E-02 0.240E+04   -.890E-02 0.323E-02 -.240E+04   0.477E-02 -.189E-02 -.115E+01   -.345E-02 0.194E-03 -.745E-02
   0.191E-01 -.151E-01 0.240E+04   -.319E-01 0.192E-01 -.240E+04   0.471E-02 -.137E-02 -.115E+01   -.291E-03 -.257E-03 -.779E-02
   -.461E-03 -.242E-01 0.240E+04   -.111E-01 0.294E-01 -.240E+04   0.473E-02 -.923E-03 -.115E+01   -.138E-02 -.273E-02 -.705E-02
   -.156E-01 -.437E-02 0.240E+04   0.118E-02 0.128E-01 -.240E+04   0.461E-02 -.108E-02 -.115E+01   0.299E-02 -.558E-02 -.643E-02
   -.343E-01 0.177E-01 0.240E+04   0.212E-01 -.129E-01 -.240E+04   0.457E-02 -.974E-03 -.115E+01   0.102E-02 -.221E-02 -.781E-02
   -.137E-02 -.297E-02 0.240E+04   -.929E-02 0.487E-02 -.240E+04   0.501E-02 -.104E-02 -.115E+01   -.263E-02 0.853E-03 -.880E-02
   -.211E-01 -.163E-02 0.240E+04   0.119E-01 0.876E-03 -.240E+04   0.502E-02 -.106E-02 -.115E+01   -.451E-02 0.345E-02 -.544E-02
   0.796E-02 -.111E-01 0.240E+04   -.183E-01 0.130E-01 -.240E+04   0.465E-02 -.131E-02 -.115E+01   -.195E-02 0.158E-02 -.912E-02
   -.175E-02 0.144E-01 0.240E+04   -.144E-01 -.114E-01 -.240E+04   0.438E-02 -.110E-02 -.115E+01   0.480E-02 -.475E-03 -.840E-02
   -.373E-01 0.307E-01 0.240E+04   0.229E-01 -.291E-01 -.240E+04   0.488E-02 -.834E-03 -.115E+01   0.167E-02 0.350E-03 -.611E-02
   -.575E-01 0.224E-01 0.240E+04   0.417E-01 -.186E-01 -.240E+04   0.460E-02 -.123E-02 -.115E+01   0.413E-02 -.666E-03 -.497E-02
   -.152E-01 0.912E-02 0.240E+04   0.747E-02 -.895E-02 -.240E+04   0.467E-02 -.146E-02 -.115E+01   -.458E-02 0.427E-02 -.381E-02
   0.260E-01 0.473E-02 0.240E+04   -.378E-01 -.367E-02 -.240E+04   0.444E-02 -.164E-02 -.115E+01   -.317E-03 0.368E-02 -.746E-02
   -.437E-02 0.165E-01 0.240E+04   -.911E-02 -.125E-01 -.240E+04   0.467E-02 -.112E-02 -.115E+01   0.764E-03 -.123E-02 -.840E-02
   -.143E+00 0.111E-01 0.809E+03   0.126E+00 -.142E-02 -.809E+03   0.285E-01 -.868E-02 -.433E+00   0.384E-02 -.455E-02 -.809E-02
   -.368E+00 0.445E-01 0.809E+03   0.360E+00 -.342E-01 -.809E+03   0.335E-01 -.107E-01 -.431E+00   -.495E-02 -.493E-02 -.841E-02
   -.476E-01 -.498E-01 0.809E+03   0.320E-01 0.566E-01 -.809E+03   0.347E-01 -.982E-02 -.431E+00   -.245E-02 -.102E-02 -.104E-01
   -.288E+00 -.104E+00 0.809E+03   0.268E+00 0.110E+00 -.809E+03   0.370E-01 -.714E-02 -.434E+00   0.342E-02 -.619E-03 -.103E-01
   -.166E+00 0.369E-02 0.809E+03   0.151E+00 0.624E-02 -.809E+03   0.332E-01 -.642E-02 -.428E+00   -.395E-03 -.741E-02 -.127E-01
   -.225E+00 0.588E-01 0.809E+03   0.206E+00 -.488E-01 -.809E+03   0.314E-01 -.707E-02 -.432E+00   0.442E-02 -.624E-02 -.110E-01
   -.297E+00 0.208E+00 0.809E+03   0.282E+00 -.208E+00 -.809E+03   0.351E-01 -.821E-02 -.429E+00   -.549E-03 0.204E-02 -.986E-02
   -.191E+00 -.218E-01 0.809E+03   0.177E+00 0.238E-01 -.809E+03   0.367E-01 -.709E-02 -.430E+00   -.355E-02 0.201E-02 -.117E-01
   -.205E+00 -.292E-02 0.809E+03   0.196E+00 0.113E-02 -.809E+03   0.367E-01 -.108E-01 -.426E+00   -.849E-02 0.748E-02 -.134E-01
   -.875E-01 0.286E-01 0.809E+03   0.703E-01 -.276E-01 -.809E+03   0.311E-01 -.112E-01 -.428E+00   0.258E-02 0.455E-02 -.131E-01
   -.149E+00 0.662E-01 0.809E+03   0.130E+00 -.636E-01 -.809E+03   0.315E-01 -.607E-02 -.434E+00   0.412E-02 -.630E-03 -.102E-01
   -.436E+00 0.516E-01 0.809E+03   0.418E+00 -.519E-01 -.809E+03   0.378E-01 -.676E-02 -.431E+00   0.176E-02 0.296E-02 -.101E-01
   -.300E+00 0.249E+00 0.809E+03   0.285E+00 -.245E+00 -.809E+03   0.331E-01 -.146E-01 -.431E+00   0.380E-03 0.182E-02 -.806E-02
   -.141E+00 0.169E+00 0.809E+03   0.132E+00 -.167E+00 -.809E+03   0.341E-01 -.152E-01 -.429E+00   -.687E-02 0.390E-02 -.101E-01
   -.905E-01 0.184E+00 0.809E+03   0.738E-01 -.179E+00 -.809E+03   0.341E-01 -.139E-01 -.435E+00   -.850E-04 0.321E-03 -.103E-01
   -.314E+00 0.742E-01 0.810E+03   0.293E+00 -.704E-01 -.809E+03   0.334E-01 -.917E-02 -.440E+00   0.659E-02 0.454E-03 -.587E-02
   -.104E-01 0.278E+00 -.808E+03   0.746E-02 -.255E+00 0.808E+03   -.331E-02 -.138E-01 0.391E+00   0.516E-02 -.130E-01 -.332E-02
   -.300E+00 -.686E-01 -.808E+03   0.294E+00 0.714E-01 0.807E+03   0.554E-02 0.927E-02 0.410E+00   0.494E-02 -.397E-02 0.317E-02
   0.300E-01 -.745E-01 -.808E+03   -.242E-01 0.752E-01 0.808E+03   -.214E-02 0.342E-02 0.385E+00   -.291E-02 -.112E-02 0.468E-02
   0.325E+00 -.204E+00 -.808E+03   -.315E+00 0.201E+00 0.807E+03   -.116E-01 0.533E-02 0.404E+00   -.355E-02 0.345E-02 0.357E-02
   0.380E+00 0.142E+00 -.808E+03   -.372E+00 -.140E+00 0.808E+03   -.102E-01 -.206E-02 0.399E+00   -.396E-02 -.145E-02 -.557E-02
   -.239E+00 0.187E+00 -.808E+03   0.235E+00 -.182E+00 0.808E+03   0.331E-02 -.770E-03 0.399E+00   0.468E-02 -.567E-02 -.293E-02
   -.523E-01 0.481E+00 -.808E+03   0.518E-01 -.470E+00 0.807E+03   -.870E-02 -.106E-01 0.404E+00   0.380E-02 -.687E-02 0.381E-02
   0.109E-01 0.295E+00 -.808E+03   -.407E-02 -.289E+00 0.808E+03   -.430E-02 -.689E-02 0.402E+00   -.106E-02 -.194E-02 0.238E-02
   0.347E+00 -.241E+00 -.809E+03   -.323E+00 0.223E+00 0.808E+03   -.209E-01 0.129E-01 0.391E+00   -.116E-01 0.113E-01 -.518E-02
   0.139E+00 -.505E+00 -.809E+03   -.133E+00 0.491E+00 0.808E+03   -.512E-02 0.176E-01 0.392E+00   -.296E-02 0.835E-02 -.609E-02
   -.667E-01 -.207E+00 -.808E+03   0.514E-01 0.196E+00 0.808E+03   0.855E-02 0.131E-01 0.395E+00   0.971E-02 0.492E-02 -.249E-02
   -.239E+00 -.485E-01 -.807E+03   0.237E+00 0.418E-01 0.807E+03   0.128E-03 0.423E-02 0.402E+00   0.658E-02 0.670E-02 0.376E-02
   -.632E-01 0.809E-01 -.807E+03   0.666E-01 -.789E-01 0.807E+03   -.225E-02 0.376E-02 0.402E+00   -.318E-03 -.454E-02 0.183E-02
   -.154E+00 -.933E-01 -.808E+03   0.156E+00 0.856E-01 0.807E+03   0.459E-02 0.690E-02 0.406E+00   -.376E-03 0.228E-02 0.234E-02
   0.367E+00 -.106E+00 -.808E+03   -.354E+00 0.101E+00 0.807E+03   -.123E-01 0.416E-02 0.405E+00   -.861E-02 0.966E-03 0.310E-02
   -.267E-01 0.320E-02 -.807E+03   0.195E-01 0.131E-02 0.807E+03   -.281E-03 0.223E-02 0.404E+00   0.948E-02 -.398E-02 0.429E-02
   0.193E+00 0.209E+00 -.240E+04   -.170E+00 -.205E+00 0.240E+04   -.302E-01 0.813E-02 0.118E+01   0.479E-02 -.753E-02 -.458E-03
   0.243E+00 -.310E+00 -.240E+04   -.220E+00 0.298E+00 0.240E+04   -.315E-01 0.179E-01 0.118E+01   0.584E-02 -.129E-03 0.377E-05
   0.160E+00 -.679E+00 -.240E+04   -.128E+00 0.661E+00 0.240E+04   -.317E-01 0.202E-01 0.118E+01   -.375E-02 0.470E-02 0.353E-02
   0.100E+00 -.972E-02 -.240E+04   -.709E-01 0.337E-02 0.240E+04   -.302E-01 0.943E-02 0.118E+01   -.254E-02 -.137E-03 0.527E-02
   0.270E+00 0.743E+00 -.240E+04   -.241E+00 -.734E+00 0.240E+04   -.282E-01 -.504E-02 0.117E+01   -.482E-03 -.698E-02 0.904E-02
   0.926E-01 0.699E+00 -.240E+04   -.672E-01 -.688E+00 0.240E+04   -.386E-01 0.721E-04 0.117E+01   0.721E-02 -.120E-01 0.803E-02
   -.295E+00 0.222E+00 -.240E+04   0.313E+00 -.224E+00 0.240E+04   -.235E-01 0.817E-02 0.118E+01   0.549E-02 -.449E-02 0.263E-02
   0.752E+00 0.244E+00 -.240E+04   -.711E+00 -.246E+00 0.240E+04   -.421E-01 0.360E-02 0.118E+01   -.640E-02 -.165E-02 0.515E-02
   0.892E+00 -.764E-01 -.240E+04   -.849E+00 0.660E-01 0.240E+04   -.459E-01 0.124E-01 0.116E+01   -.492E-02 0.131E-02 0.133E-01
   0.147E+00 0.217E-01 -.240E+04   -.118E+00 -.286E-01 0.240E+04   -.350E-01 0.102E-01 0.117E+01   0.186E-02 -.228E-02 0.329E-01
   -.393E+00 -.188E+00 -.240E+04   0.405E+00 0.176E+00 0.240E+04   -.275E-01 0.213E-01 0.117E+01   0.133E-01 -.207E-02 0.876E-02
   0.269E+00 0.805E-01 -.240E+04   -.237E+00 -.838E-01 0.240E+04   -.370E-01 0.656E-02 0.118E+01   0.145E-02 -.327E-02 0.439E-02
   0.724E+00 -.321E+00 -.240E+04   -.683E+00 0.305E+00 0.240E+04   -.463E-01 0.146E-01 0.117E+01   -.616E-03 0.231E-02 -.943E-04
   0.596E+00 -.552E+00 -.240E+04   -.555E+00 0.532E+00 0.240E+04   -.422E-01 0.113E-01 0.116E+01   -.484E-02 0.924E-02 0.106E-01
   -.393E+00 -.583E+00 -.240E+04   0.409E+00 0.565E+00 0.240E+04   -.196E-01 0.159E-01 0.117E+01   0.527E-02 0.630E-02 0.704E-02
   -.108E+00 -.450E+00 -.240E+04   0.123E+00 0.432E+00 0.240E+04   -.271E-01 0.211E-01 0.118E+01   0.938E-02 0.235E-02 0.161E-02
 -----------------------------------------------------------------------------------------------
   0.421E-01 -.694E-02 0.325E+00   0.252E-12 0.188E-12 0.155E-10   0.208E-01 0.520E-01 -.223E+00   0.398E-01 -.188E-01 -.153E+00
 
 
 POSITION                                       TOTAL-FORCE (eV/Angst)
 -----------------------------------------------------------------------------------
      0.00000      0.00000      0.00000        -0.008855      0.002205      0.031700
      2.80000      0.00000      0.00000        -0.008407      0.002235      0.029262
      5.60000      0.00000      0.00000        -0.009451      0.002654      0.029933
      8.40000      0.00000      0.00000        -0.009964      0.001965      0.029390
      9.80000      2.42487      0.00000        -0.009830      0.001073      0.030741
      1.40000      2.42487      0.00000        -0.008426      0.001319      0.030522
      4.20000      2.42487      0.00000        -0.009056      0.001269      0.029843
      7.00000      2.42487      0.00000        -0.009863      0.001277      0.030219
      8.40000      4.84974      0.00000        -0.010237      0.001188      0.030823
      0.00000      4.84974      0.00000        -0.009191      0.001719      0.030958
      2.80000      4.84974      0.00000        -0.008544      0.000997      0.030600
      5.60000      4.84974      0.00000        -0.009491      0.000816      0.029490
      7.00000      7.27461      0.00000        -0.008709      0.001446      0.031481
     -1.40000      7.27461      0.00000        -0.009203      0.002576      0.031042
      1.40000      7.27461      0.00000        -0.009247      0.002734      0.031007
      4.20000      7.27461      0.00000        -0.009686      0.001245      0.031331
      1.40000      0.80829      2.28619         0.013460     -0.003949     -0.029875
      4.20000      0.80829      2.28619         0.018566     -0.005682     -0.028725
      7.00000      0.80829      2.28619         0.015087     -0.004485     -0.028318
      9.80000      0.80829      2.28619         0.018742     -0.002400     -0.030846
      0.00000      3.23316      2.28619         0.016267     -0.004331     -0.025683
      2.80000      3.23316      2.28619         0.015363     -0.003758     -0.027768
      5.60000      3.23316      2.28619         0.017933     -0.006877     -0.027092
      8.40000      3.23316      2.28619         0.017903     -0.003504     -0.024870
     -1.40000      5.65803      2.28619         0.018197     -0.005566     -0.022680
      1.40000      5.65803      2.28619         0.015006     -0.005989     -0.024877
      4.20000      5.65803      2.28619         0.014626     -0.004451     -0.031797
      7.00000      5.65803      2.28619         0.020478     -0.004586     -0.026492
     -2.80000      8.08290      2.28619         0.017336     -0.009661     -0.026543
      0.00000      8.08290      2.28619         0.016504     -0.010176     -0.023828
      2.80000      8.08290      2.28619         0.015806     -0.008734     -0.031035
      5.60000      8.08290      2.28619         0.017404     -0.005407     -0.034628
      0.01307      1.61443      4.53089        -0.002707     -0.004251     -0.005367
      2.81239      1.61286      4.52924         0.002165      0.007628      0.006654
      5.61327      1.61299      4.53058        -0.000916      0.002590     -0.010443
      8.41387      1.61315      4.52969        -0.006439      0.005371      0.001633
     -1.38619      4.03817      4.53119        -0.008091     -0.001488     -0.002377
      1.41293      4.03792      4.53094         0.002390     -0.001534     -0.001801
      4.21323      4.03898      4.52953        -0.007082     -0.007275      0.001602
      7.01382      4.03881      4.53022        -0.000157     -0.003979      0.000272
     -2.78512      6.46184      4.53143        -0.009357      0.005369     -0.006771
      0.01358      6.46150      4.53171        -0.003474      0.011783     -0.007116
      2.81236      6.46191      4.53063         0.001400      0.006474     -0.002720
      5.61330      6.46311      4.52917         0.002773      0.003822      0.002114
     -4.18695      8.88745      4.52929        -0.000779      0.000739      0.002322
     -1.38695      8.88679      4.52979         0.004595      0.001108      0.002104
      1.41366      8.88705      4.52955        -0.009191     -0.000253      0.002369
      4.21309      8.88779      4.52882         0.000469      0.002352      0.003744
     -5.57462      9.69222      6.80757        -0.004257      0.003562      0.002848
     -2.77431      9.69170      6.80803        -0.004613      0.004792      0.003113
      0.02577      9.69190      6.80865        -0.005000      0.005882      0.000609
      2.82563      9.69235      6.80789        -0.004863      0.002554      0.003484
     -1.37424      2.41852      6.81144        -0.002027     -0.002953     -0.005664
      1.42643      2.41794      6.81119        -0.007640     -0.000809     -0.007763
      4.22533      2.41789      6.80813        -0.002229      0.001352      0.001317
      7.02658      2.41822      6.80902        -0.009096     -0.000616      0.000202
     -2.77290      4.84261      6.81258        -0.009885      0.002868     -0.011288
      0.02662      4.84229      6.81208        -0.006240      0.000685     -0.002432
      2.82600      4.84192      6.81117        -0.004008      0.007258     -0.005864
      5.62644      4.84295      6.80821        -0.005507     -0.000419      0.004789
     -4.17325      7.26726      6.80911        -0.007566      0.001351     -0.001491
     -1.37301      7.26746      6.81217        -0.007809      0.000158     -0.009343
      1.42544      7.26723      6.81112        -0.000502      0.003760     -0.005679
      4.22560      7.26675      6.80745        -0.004875      0.004954      0.003660
 -----------------------------------------------------------------------------------
    total drift:                                0.102725      0.026358     -0.050849


--------------------------------------------------------------------------------------------------------



  FREE ENERGIE OF THE ION-ELECTRON SYSTEM (eV)
  ---------------------------------------------------
  free  energy   TOTEN  =      -389.83587771 eV

  energy  without entropy=     -389.95429794  energy(sigma->0) =     -389.86548277
 
 d Force = 0.3669211E-03[ 0.117E-03, 0.617E-03]  d Energy =-0.4143777E-03 0.781E-03
 d Force =-0.2012360E+02[-0.201E+02,-0.201E+02]  d Ewald  =-0.2012360E+02-0.290E-05


--------------------------------------------------------------------------------------------------------


    POTLOK:  cpu time    0.1040: real time    0.1063


--------------------------------------------------------------------------------------------------------


 stress matrix after NEB project (eV)
    -77.89724     -0.12130     -0.42178
     -0.12130    -78.03784      0.10615
     -0.42178      0.10615     -1.61955
  FORCES: max atom, RMS     0.015276    0.006055
  FORCE total and by dimension    0.048440    0.011783
  Stress total and by dimension  110.276545   78.037843
 Conjugate gradient step on ions:
 trial-energy change:    0.000414  1 .order   -0.000367   -0.000617   -0.000117
  (g-gl).g = 0.322E-03      g.g   = 0.346E-03  gl.gl    = 0.700E-03
 g(Force)  = 0.346E-03   g(Stress)= 0.000E+00 ortho     = 0.243E-04
 gamma     =   0.46039
 trial     =   1.72473
 opt step  =   2.12936  (harmonic =   2.12936) maximal distance =0.00141817
 next E    =  -389.836673   (d E  =  -0.00038)


--------------------------------------------------------------------------------------------------------


  
 reached required accuracy - stopping structural energy minimisation
     LOOP+:  cpu time  148.4160: real time  148.7931
    4ORBIT:  cpu time    0.0000: real time    0.0000

 total amount of memory used by VASP on root node   172063. kBytes
========================================================================

   base      :      30000. kBytes
   nonlr-proj:      22234. kBytes
   fftplans  :       7383. kBytes
   grid      :      22579. kBytes
   one-center:        995. kBytes
   wavefun   :      88872. kBytes
 
  
  
 General timing and accounting informations for this job:
 ========================================================
  
                  Total CPU time used (sec):     1934.296
                            User time (sec):     1929.796
                          System time (sec):        4.500
                         Elapsed time (sec):     1941.574
  
                   Maximum memory used (kb):      402228.
                   Average memory used (kb):           0.
  
                          Minor page faults:       819645
                          Major page faults:            0
                 Voluntary context switches:         3880
