 vasp.5.4.1 24Jun15 (build Jan 19 2018 10:32:04) complex                        
  
 executed on           IFC91_ompi date 2020.01.29  14:37:00
 running on   16 total cores
 distrk:  each k-point on   16 cores,    1 groups
 distr:  one band on NCORES_PER_BAND=   1 cores,   16 groups


--------------------------------------------------------------------------------------------------------


 INCAR:
 POTCAR:    PAW_PBE Pt 04Feb2005                  
 POTCAR:    PAW_PBE O 08Apr2002                   
 POTCAR:    PAW_PBE H 15Jun2001                   

 ----------------------------------------------------------------------------- 
|                                                                             |
|           W    W    AA    RRRRR   N    N  II  N    N   GGGG   !!!           |
|           W    W   A  A   R    R  NN   N  II  NN   N  G    G  !!!           |
|           W    W  A    A  R    R  N N  N  II  N N  N  G       !!!           |
|           W WW W  AAAAAA  RRRRR   N  N N  II  N  N N  G  GGG   !            |
|           WW  WW  A    A  R   R   N   NN  II  N   NN  G    G                |
|           W    W  A    A  R    R  N    N  II  N    N   GGGG   !!!           |
|                                                                             |
|      For optimal performance we recommend to set                            |
|        NCORE= 4 - approx SQRT( number of cores)                             |
|      NCORE specifies how many cores store one orbital (NPAR=cpu/NCORE).     |
|      This setting can  greatly improve the performance of VASP for DFT.     |
|      The default, NPAR=number of cores might be grossly inefficient         |
|      on modern multi-core architectures or massively parallel machines.     |
|      Do your own testing !!!!                                               |
|      Unfortunately you need to use the default for GW and RPA calculations. |
|      (for HF NCORE is supported but not extensively tested yet)             |
|                                                                             |
 ----------------------------------------------------------------------------- 

 POTCAR:    PAW_PBE Pt 04Feb2005                  
   VRHFIN =Pt: s1d9                                                             
   LEXCH  = PE                                                                  
   EATOM  =   729.1176 eV,   53.5886 Ry                                         
                                                                                
   TITEL  = PAW_PBE Pt 04Feb2005                                                
   LULTRA =        F    use ultrasoft PP ?                                      
   IUNSCR =        1    unscreen: 0-lin 1-nonlin 2-no                           
   RPACOR =    2.330    partial core radius                                     
   POMASS =  195.080; ZVAL   =   10.000    mass and valenz                      
   RCORE  =    2.600    outmost cutoff radius                                   
   RWIGS  =    2.750; RWIGS  =    1.455    wigner-seitz radius (au A)           
   ENMAX  =  230.283; ENMIN  =  172.712 eV                                      
   ICORE  =        3    local potential                                         
   LCOR   =        T    correct aug charges                                     
   LPAW   =        T    paw PP                                                  
   EAUG   =  358.966                                                            
   DEXC   =    0.000                                                            
   RMAX   =    2.658    core radius for proj-oper                               
   RAUG   =    1.300    factor for augmentation sphere                          
   RDEP   =    2.761    radius for radial grids                                 
   RDEPT  =    2.203    core radius for aug-charge                              
                                                                                
   Atomic configuration                                                         
   16 entries                                                                   
     n  l   j            E        occ.                                          
     1  0  0.50    -78401.1885   2.0000                                         
     2  0  0.50    -13770.7750   2.0000                                         
     2  1  1.50    -11931.0468   6.0000                                         
     3  0  0.50     -3234.7234   2.0000                                         
     3  1  1.50     -2699.2216   6.0000                                         
     3  2  2.50     -2119.5714  10.0000                                         
     4  0  0.50      -695.1528   2.0000                                         
     4  1  1.50      -519.6034   6.0000                                         
     4  2  2.50      -306.6786  10.0000                                         
     4  3  3.50       -70.1041  14.0000                                         
     5  0  0.50      -101.7747   2.0000                                         
     5  1  1.50       -55.9873   6.0000                                         
     5  2  2.50        -6.1423   9.0000                                         
     6  0  0.50        -5.6573   1.0000                                         
     6  1  1.50        -6.8029   0.0000                                         
     5  3  2.50        -1.3606   0.0000                                         
   Description                                                                  
     l       E           TYP  RCUT    TYP  RCUT                                 
     2     -6.1423404     23  2.500                                             
     2     -7.5029230     23  2.500                                             
     0     -5.6573207     23  2.500                                             
     0      0.7416693     23  2.500                                             
     1     -2.7211652     23  2.600                                             
     1     20.4087390     23  2.600                                             
     3     -1.3605826     23  2.500                                             
  local pseudopotential read in
  partial core-charges read in
  partial kinetic energy density read in
  atomic valenz-charges read in
  non local Contribution for L=           2  read in
    real space projection operators read in
  non local Contribution for L=           2  read in
    real space projection operators read in
  non local Contribution for L=           0  read in
    real space projection operators read in
  non local Contribution for L=           0  read in
    real space projection operators read in
  non local Contribution for L=           1  read in
    real space projection operators read in
  non local Contribution for L=           1  read in
    real space projection operators read in
    PAW grid and wavefunctions read in
 
   number of l-projection  operators is LMAX  =           6
   number of lm-projection operators is LMMAX =          18
 
 POTCAR:    PAW_PBE O 08Apr2002                   
   VRHFIN =O: s2p4                                                              
   LEXCH  = PE                                                                  
   EATOM  =   432.3788 eV,   31.7789 Ry                                         
                                                                                
   TITEL  = PAW_PBE O 08Apr2002                                                 
   LULTRA =        F    use ultrasoft PP ?                                      
   IUNSCR =        1    unscreen: 0-lin 1-nonlin 2-no                           
   RPACOR =    1.200    partial core radius                                     
   POMASS =   16.000; ZVAL   =    6.000    mass and valenz                      
   RCORE  =    1.520    outmost cutoff radius                                   
   RWIGS  =    1.550; RWIGS  =    0.820    wigner-seitz radius (au A)           
   ENMAX  =  400.000; ENMIN  =  300.000 eV                                      
   ICORE  =        2    local potential                                         
   LCOR   =        T    correct aug charges                                     
   LPAW   =        T    paw PP                                                  
   EAUG   =  605.392                                                            
   DEXC   =    0.000                                                            
   RMAX   =    1.553    core radius for proj-oper                               
   RAUG   =    1.300    factor for augmentation sphere                          
   RDEP   =    1.550    radius for radial grids                                 
   RDEPT  =    1.329    core radius for aug-charge                              
                                                                                
   Atomic configuration                                                         
    4 entries                                                                   
     n  l   j            E        occ.                                          
     1  0  0.50      -514.6923   2.0000                                         
     2  0  0.50       -23.9615   2.0000                                         
     2  1  0.50        -9.0305   4.0000                                         
     3  2  1.50        -9.5241   0.0000                                         
   Description                                                                  
     l       E           TYP  RCUT    TYP  RCUT                                 
     0    -23.9615318     23  1.200                                             
     0     -9.5240782     23  1.200                                             
     1     -9.0304911     23  1.520                                             
     1      8.1634956     23  1.520                                             
     2     -9.5240782      7  1.500                                             
  local pseudopotential read in
  partial core-charges read in
  partial kinetic energy density read in
  kinetic energy density of atom read in
  atomic valenz-charges read in
  non local Contribution for L=           0  read in
    real space projection operators read in
  non local Contribution for L=           0  read in
    real space projection operators read in
  non local Contribution for L=           1  read in
    real space projection operators read in
  non local Contribution for L=           1  read in
    real space projection operators read in
    PAW grid and wavefunctions read in
 
   number of l-projection  operators is LMAX  =           4
   number of lm-projection operators is LMMAX =           8
 
 POTCAR:    PAW_PBE H 15Jun2001                   
   VRHFIN =H: ultrasoft test                                                    
   LEXCH  = PE                                                                  
   EATOM  =    12.4884 eV,    0.9179 Ry                                         
                                                                                
   TITEL  = PAW_PBE H 15Jun2001                                                 
   LULTRA =        F    use ultrasoft PP ?                                      
   IUNSCR =        0    unscreen: 0-lin 1-nonlin 2-no                           
   RPACOR =    0.000    partial core radius                                     
   POMASS =    1.000; ZVAL   =    1.000    mass and valenz                      
   RCORE  =    1.100    outmost cutoff radius                                   
   RWIGS  =    0.700; RWIGS  =    0.370    wigner-seitz radius (au A)           
   ENMAX  =  250.000; ENMIN  =  200.000 eV                                      
   RCLOC  =    0.701    cutoff for local pot                                    
   LCOR   =        T    correct aug charges                                     
   LPAW   =        T    paw PP                                                  
   EAUG   =  400.000                                                            
   RMAX   =    1.123    core radius for proj-oper                               
   RAUG   =    1.200    factor for augmentation sphere                          
   RDEP   =    1.112    radius for radial grids                                 
   RDEPT  =    0.926    core radius for aug-charge                              
                                                                                
   Atomic configuration                                                         
    2 entries                                                                   
     n  l   j            E        occ.                                          
     1  0  0.50        -6.4927   1.0000                                         
     2  1  0.50        -3.4015   0.0000                                         
   Description                                                                  
     l       E           TYP  RCUT    TYP  RCUT                                 
     0     -6.4927494     23  1.100                                             
     0      6.8029130     23  1.100                                             
     1     -4.0817478     23  1.100                                             
  local pseudopotential read in
  atomic valenz-charges read in
  non local Contribution for L=           0  read in
    real space projection operators read in
  non local Contribution for L=           0  read in
    real space projection operators read in
  non local Contribution for L=           1  read in
    real space projection operators read in
    PAW grid and wavefunctions read in
 
   number of l-projection  operators is LMAX  =           3
   number of lm-projection operators is LMMAX =           5
 
 Optimization of the real space projectors (new method)

 maximal supplied QI-value         = 14.36
 optimisation between [QCUT,QGAM] = [ 10.20, 20.39] = [ 29.12,116.47] Ry 
 Optimized for a Real-space Cutoff    1.51 Angstroem

   l    n(q)    QCUT    max X(q) W(low)/X(q) W(high)/X(q)  e(spline) 
   2      8    10.197    66.195    0.45E-03    0.45E-03    0.14E-06
   2      8    10.197    64.643    0.46E-03    0.46E-03    0.14E-06
   0      9    10.197    95.520    0.15E-03    0.11E-03    0.54E-07
   0      9    10.197    63.403    0.15E-03    0.11E-03    0.52E-07
   1      9    10.197    19.961    0.13E-03    0.17E-03    0.77E-07
   1      9    10.197    13.289    0.10E-03    0.15E-03    0.67E-07
 Optimization of the real space projectors (new method)

 maximal supplied QI-value         = 24.76
 optimisation between [QCUT,QGAM] = [ 10.15, 20.30] = [ 28.85,115.39] Ry 
 Optimized for a Real-space Cutoff    1.38 Angstroem

   l    n(q)    QCUT    max X(q) W(low)/X(q) W(high)/X(q)  e(spline) 
   0      8    10.150    20.381    0.22E-03    0.32E-03    0.29E-06
   0      8    10.150    15.268    0.23E-03    0.35E-03    0.30E-06
   1      8    10.150     5.964    0.46E-03    0.53E-03    0.21E-06
   1      8    10.150     5.382    0.38E-03    0.45E-03    0.19E-06
 Optimization of the real space projectors (new method)

 maximal supplied QI-value         = 34.20
 optimisation between [QCUT,QGAM] = [  9.92, 20.18] = [ 27.55,114.04] Ry 
 Optimized for a Real-space Cutoff    1.26 Angstroem

   l    n(q)    QCUT    max X(q) W(low)/X(q) W(high)/X(q)  e(spline) 
   0      8     9.919    19.460    0.50E-03    0.23E-03    0.29E-06
   0      8     9.919    12.209    0.48E-03    0.23E-03    0.28E-06
   1      7     9.919     4.655    0.17E-03    0.75E-03    0.30E-06
  PAW_PBE Pt 04Feb2005                  :
 energy of atom  1       EATOM= -729.1176
 kinetic energy error for atom=    0.0056 (will be added to EATOM!!)
  PAW_PBE O 08Apr2002                   :
 energy of atom  2       EATOM= -432.3788
 kinetic energy error for atom=    0.1156 (will be added to EATOM!!)
  PAW_PBE H 15Jun2001                   :
 energy of atom  3       EATOM=  -12.4884
 kinetic energy error for atom=    0.0098 (will be added to EATOM!!)
 
 
 POSCAR: Pt  C  O  C  O  H                       
  positions in direct lattice
  velocities in cartesian coordinates
 exchange correlation table for  LEXCH =        8
   RHO(1)=    0.500       N(1)  =     2000
   RHO(2)=  100.500       N(2)  =     4000

 VTST: version 3.1, (03/28/14)

 CHAIN: initializing optimizer
 
 OPT: Using VASP Conjugate-Gradient optimizer
 CHAIN: Read ICHAIN            0
 
 POSCAR: Pt  C  O  C  O  H                       
  positions in direct lattice
  velocities in cartesian coordinates
 


--------------------------------------------------------------------------------------------------------


 ion  position               nearest neighbor table
   1  0.000  0.000  0.000-   6 2.80   5 2.80  17 2.80  20 2.80   2 2.80   4 2.80  32 2.80  16 2.80
                            13 2.80
   2  0.250  0.000  0.000-   7 2.80   6 2.80  17 2.80  18 2.80   1 2.80   3 2.80  29 2.80  14 2.80
                            13 2.80
   3  0.500  0.000  0.000-   8 2.80   7 2.80  18 2.80  19 2.80   2 2.80   4 2.80  30 2.80  15 2.80
                            14 2.80
   4  0.750  0.000  0.000-   5 2.80   8 2.80  19 2.80  20 2.80   1 2.80   3 2.80  31 2.80  16 2.80
                            15 2.80
   5  1.000  0.250  0.000-   9 2.80   4 2.80  10 2.80   1 2.80  20 2.80  24 2.80  21 2.80   8 2.80
                             6 2.80
   6  0.250  0.250  0.000-  10 2.80   1 2.80  11 2.80   2 2.80  17 2.80  21 2.80  22 2.80   7 2.80
                             5 2.80
   7  0.500  0.250  0.000-  11 2.80   2 2.80  12 2.80   3 2.80  18 2.80  22 2.80  23 2.80   8 2.80
                             6 2.80
   8  0.750  0.250  0.000-  12 2.80   9 2.80   3 2.80   4 2.80  19 2.80  23 2.80  24 2.80   7 2.80
                             5 2.80
   9  1.000  0.500  0.000-   5 2.80   8 2.80  14 2.80  13 2.80  24 2.80  25 2.80  28 2.80  12 2.80
                            10 2.80
  10  0.250  0.500  0.000-   6 2.80   5 2.80  15 2.80  14 2.80  21 2.80  25 2.80  26 2.80  11 2.80
                             9 2.80
  11  0.500  0.500  0.000-   7 2.80   6 2.80  16 2.80  15 2.80  22 2.80  26 2.80  27 2.80  12 2.80
                            10 2.80
  12  0.750  0.500  0.000-   8 2.80   7 2.80  13 2.80  16 2.80  23 2.80  27 2.80  28 2.80  11 2.80
                             9 2.80
  13  1.000  0.750  0.000-  12 2.80   9 2.80  28 2.80  29 2.80  32 2.80  16 2.80  14 2.80   2 2.80
                             1 2.80
  14  0.250  0.750  0.000-   9 2.80  10 2.80  25 2.80  29 2.80  30 2.80  15 2.80  13 2.80   3 2.80
                             2 2.80
  15  0.500  0.750  0.000-  10 2.80  11 2.80  26 2.80  30 2.80  31 2.80  16 2.80  14 2.80   4 2.80
                             3 2.80
  16  0.750  0.750  0.000-  11 2.80  12 2.80  27 2.80  31 2.80  32 2.80  15 2.80  13 2.80   4 2.80
                             1 2.80
  17  0.167  0.083  0.100-  33 2.75  45 2.77  34 2.77  22 2.80  21 2.80   6 2.80   1 2.80   2 2.80
                            20 2.80  18 2.80  32 2.80  29 2.80
  18  0.417  0.083  0.100-  34 2.75  46 2.76  35 2.77  23 2.80  22 2.80   7 2.80   2 2.80   3 2.80
                            19 2.80  17 2.80  30 2.80  29 2.80
  19  0.667  0.083  0.100-  35 2.76  47 2.76  36 2.77  24 2.80  23 2.80   8 2.80   3 2.80   4 2.80
                            20 2.80  18 2.80  31 2.80  30 2.80
  20  0.917  0.083  0.100-  36 2.75  48 2.77  33 2.77  24 2.80  21 2.80   5 2.80   1 2.80   4 2.80
                            19 2.80  17 2.80  32 2.80  31 2.80
  21  0.167  0.333  0.100-  33 2.77  37 2.78  38 2.78  20 2.80  17 2.80  25 2.80  26 2.80  10 2.80
                             6 2.80   5 2.80  24 2.80  22 2.80
  22  0.417  0.333  0.100-  34 2.76  39 2.77  38 2.78  18 2.80  17 2.80  26 2.80  27 2.80  11 2.80
                             7 2.80   6 2.80  23 2.80  21 2.80
  23  0.667  0.333  0.100-  39 2.75  40 2.77  35 2.77  19 2.80  18 2.80  27 2.80  28 2.80  12 2.80
                             8 2.80   7 2.80  24 2.80  22 2.80
  24  0.917  0.333  0.100-  40 2.75  36 2.76  19 2.80  20 2.80  28 2.80  25 2.80   9 2.80   5 2.80
                             8 2.80  21 2.80  23 2.80  37 2.81
  25  0.167  0.583  0.100-  41 2.76  37 2.79  42 2.79  30 2.80  21 2.80  24 2.80  29 2.80  14 2.80
                             9 2.80  10 2.80  28 2.80  26 2.80
  26  0.417  0.583  0.100-  43 2.77  42 2.77  38 2.78  31 2.80  22 2.80  21 2.80  30 2.80  15 2.80
                            10 2.80  11 2.80  27 2.80  25 2.80
  27  0.667  0.583  0.100-  43 2.75  39 2.76  44 2.77  32 2.80  23 2.80  22 2.80  31 2.80  16 2.80
                            11 2.80  12 2.80  28 2.80  26 2.80
  28  0.917  0.583  0.100-  44 2.75  40 2.77  41 2.77  29 2.80  24 2.80  23 2.80  32 2.80  13 2.80
                             9 2.80  12 2.80  27 2.80  25 2.80
  29  0.167  0.833  0.100-  45 2.75  41 2.77  46 2.77  28 2.80  25 2.80  14 2.80  13 2.80  32 2.80
                            30 2.80   2 2.80  18 2.80  17 2.80
  30  0.417  0.833  0.100-  46 2.75  47 2.76  42 2.80  25 2.80  26 2.80  15 2.80  14 2.80  31 2.80
                            29 2.80   3 2.80  19 2.80  18 2.80
  31  0.667  0.833  0.100-  47 2.75  43 2.76  48 2.77  26 2.80  27 2.80  16 2.80  15 2.80  32 2.80
                            30 2.80   4 2.80  20 2.80  19 2.80
  32  0.917  0.833  0.100-  48 2.76  44 2.77  45 2.77  27 2.80  28 2.80  16 2.80  13 2.80  31 2.80
                            29 2.80   1 2.80  20 2.80  17 2.80
  33  0.084  0.166  0.198-  17 2.75  20 2.77  21 2.77  53 2.78  54 2.79  48 2.80  45 2.80  36 2.80
                            49 2.80  37 2.80  38 2.80  34 2.81
  34  0.335  0.166  0.198-  18 2.75  22 2.76  17 2.77  54 2.77  39 2.79  35 2.80  46 2.80  45 2.80
                            50 2.81  33 2.81  55 2.81  38 2.81
  35  0.584  0.166  0.198-  19 2.76  23 2.77  18 2.77  55 2.79  47 2.79  36 2.80  39 2.80  34 2.80
                            51 2.80  40 2.80  46 2.80  56 2.80
  36  0.834  0.167  0.198-  20 2.75  24 2.76  19 2.77  53 2.79  40 2.79  56 2.79  35 2.80  47 2.80
                            33 2.80  48 2.80  52 2.81  37 2.81
  37  0.086  0.417  0.199-  42 2.77  57 2.77  38 2.78  21 2.78  53 2.78  25 2.79  41 2.80  33 2.80
                            24 2.81  40 2.81  36 2.81  58 2.85
  38  0.334  0.417  0.199-  37 2.78  42 2.78  26 2.78  22 2.78  54 2.78  21 2.78  59 2.79  43 2.80
                            33 2.80  34 2.81  39 2.81  58 2.83
  39  0.584  0.416  0.198-  23 2.75  27 2.76  22 2.77  59 2.77  34 2.79  35 2.80  40 2.80  44 2.80
                            55 2.80  43 2.81  60 2.81  38 2.81
  40  0.834  0.416  0.198-  24 2.75  28 2.77  23 2.77  57 2.79  36 2.79  60 2.79  35 2.80  39 2.80
                            44 2.80  41 2.80  56 2.80  37 2.81
  41  0.084  0.666  0.198-  25 2.76  29 2.77  28 2.77  61 2.79  57 2.79  62 2.80  44 2.80  45 2.80
                            42 2.80  40 2.80  46 2.80  37 2.80
  42  0.333  0.665  0.199-  37 2.77  26 2.77  62 2.77  38 2.78  63 2.79  25 2.79  30 2.80  41 2.80
                            43 2.80  46 2.81  47 2.81  58 2.84
  43  0.585  0.666  0.198-  27 2.75  31 2.76  26 2.77  63 2.78  59 2.79  48 2.80  44 2.80  38 2.80
                            47 2.80  42 2.80  39 2.81  64 2.81
  44  0.834  0.666  0.198-  28 2.75  32 2.77  27 2.77  64 2.79  41 2.80  43 2.80  60 2.80  39 2.80
                            40 2.80  45 2.80  61 2.80  48 2.81
  45  0.085  0.916  0.198-  29 2.75  17 2.77  32 2.77  49 2.79  41 2.80  33 2.80  61 2.80  46 2.80
                            50 2.80  34 2.80  44 2.80  48 2.81
  46  0.335  0.916  0.198-  30 2.75  18 2.76  29 2.77  62 2.79  47 2.79  50 2.79  35 2.80  34 2.80
                            45 2.80  41 2.80  51 2.81  42 2.81
  47  0.584  0.917  0.198-  31 2.75  19 2.76  30 2.76  63 2.78  46 2.79  51 2.79  35 2.79  36 2.80
                            48 2.80  43 2.80  52 2.81  42 2.81
  48  0.834  0.916  0.198-  32 2.76  20 2.77  31 2.77  52 2.79  43 2.80  33 2.80  64 2.80  47 2.80
                            36 2.80  49 2.80  45 2.81  44 2.81
  49  0.002  0.999  0.298-  64 2.79  45 2.79  54 2.79  53 2.79  61 2.79  52 2.80  50 2.80  33 2.80
                            48 2.80
  50  0.252  0.999  0.298-  54 2.77  62 2.78  46 2.79  61 2.80  51 2.80  55 2.80  49 2.80  45 2.80
                            34 2.81
  51  0.502  1.000  0.298-  55 2.79  63 2.79  62 2.79  47 2.79  56 2.79  35 2.80  50 2.80  52 2.80
                            46 2.81
  52  0.752  0.999  0.298-  63 2.78  53 2.78  48 2.79  51 2.80  49 2.80  56 2.80  64 2.80  36 2.81
                            47 2.81
  53  0.000  0.247  0.297-  52 2.78  33 2.78  37 2.78  36 2.79  49 2.79  56 2.79  54 2.82  57 2.82
                            58 2.83
  54  0.252  0.247  0.297-  34 2.77  50 2.77  38 2.78  33 2.79  49 2.79  55 2.79  53 2.82  58 2.82
                            59 2.83
  55  0.502  0.249  0.298-  35 2.79  59 2.79  51 2.79  54 2.79  56 2.79  50 2.80  60 2.80  39 2.80
                            34 2.81
  56  0.752  0.249  0.298-  53 2.79  57 2.79  55 2.79  36 2.79  51 2.79  60 2.80  52 2.80  35 2.80
                            40 2.80
  57  0.000  0.499  0.298-  37 2.77  60 2.78  40 2.79  41 2.79  56 2.79  61 2.79  62 2.82  53 2.82
                            58 2.83
  58  0.253  0.499  0.302-  65 2.50  59 2.82  54 2.82  63 2.82  53 2.83  62 2.83  57 2.83  38 2.83
                            42 2.84  37 2.85
  59  0.505  0.499  0.297-  39 2.77  60 2.77  43 2.79  38 2.79  55 2.79  64 2.79  58 2.82  63 2.82
                            54 2.83
  60  0.752  0.499  0.298-  59 2.77  57 2.78  40 2.79  61 2.80  44 2.80  56 2.80  64 2.80  55 2.80
                            39 2.81
  61  0.002  0.749  0.298-  41 2.79  64 2.79  49 2.79  62 2.79  57 2.79  60 2.80  50 2.80  45 2.80
                            44 2.80
  62  0.252  0.751  0.298-  42 2.77  50 2.78  46 2.79  51 2.79  61 2.79  41 2.80  57 2.82  63 2.82
                            58 2.83
  63  0.504  0.751  0.297-  52 2.78  43 2.78  47 2.78  42 2.79  64 2.79  51 2.79  62 2.82  59 2.82
                            58 2.82
  64  0.753  0.750  0.298-  49 2.79  44 2.79  61 2.79  59 2.79  63 2.79  48 2.80  60 2.80  52 2.80
                            43 2.81
  65  0.258  0.495  0.411-  67 0.98  66 0.98  58 2.50
  66  0.268  0.417  0.424-  65 0.98
  67  0.341  0.578  0.425-  65 0.98
 
  LATTYP: Found a hexagonal cell.
 ALAT       =    11.2000000000
 C/A-ratio  =     2.0412414523
  
  Lattice vectors:
  
 A1 = (  11.2000000000,   0.0000000000,   0.0000000000)
 A2 = (  -5.6000000000,   9.6994845224,   0.0000000000)
 A3 = (   0.0000000000,   0.0000000000,  22.8619042660)


Analysis of symmetry for initial positions (statically):
=====================================================================
 Subroutine PRICEL returns:
 Original cell was already a primitive cell.
 

 Routine SETGRP: Setting up the symmetry group for a 
 hexagonal supercell.


 Subroutine GETGRP returns: Found  1 space group operations
 (whereof  1 operations were pure point group operations)
 out of a pool of 24 trial point group operations.


The static configuration has the point symmetry C_1 .


Analysis of symmetry for dynamics (positions and initial velocities):
=====================================================================
 Subroutine PRICEL returns:
 Original cell was already a primitive cell.
 

 Routine SETGRP: Setting up the symmetry group for a 
 hexagonal supercell.


 Subroutine GETGRP returns: Found  1 space group operations
 (whereof  1 operations were pure point group operations)
 out of a pool of 24 trial point group operations.


The dynamic configuration has the point symmetry C_1 .


Analysis of constrained symmetry for selective dynamics:
=====================================================================
 Subroutine PRICEL returns:
 Original cell was already a primitive cell.
 

 Routine SETGRP: Setting up the symmetry group for a 
 hexagonal supercell.


 Subroutine GETGRP returns: Found  1 space group operations
 (whereof  1 operations were pure point group operations)
 out of a pool of 24 trial point group operations.


The constrained configuration has the point symmetry C_1 .


 Subroutine INISYM returns: Found  1 space group operations
 (whereof  1 operations are pure point group operations),
 and found     1 'primitive' translations

 
 
 KPOINTS:  Automatic mesh        #Titlle/comment  

Automatic generation of k-mesh.
Space group operators:
 irot       det(A)        alpha          n_x          n_y          n_z        tau_x        tau_y        tau_z
    1     1.000000     0.000000     1.000000     0.000000     0.000000     0.000000     0.000000     0.000000
 
 Subroutine IBZKPT returns following result:
 ===========================================
 
 Found      5 irreducible k-points:
 
 Following reciprocal coordinates:
            Coordinates               Weight
  0.000000  0.000000  0.000000      1.000000
  0.333333  0.000000  0.000000      2.000000
  0.000000  0.333333  0.000000      2.000000
  0.333333  0.333333  0.000000      2.000000
 -0.333333  0.333333  0.000000      2.000000
 
 Following cartesian coordinates:
            Coordinates               Weight
  0.000000  0.000000  0.000000      1.000000
  0.029762  0.017183  0.000000      2.000000
  0.000000  0.034366  0.000000      2.000000
  0.029762  0.051549  0.000000      2.000000
 -0.029762  0.017183  0.000000      2.000000
 


--------------------------------------------------------------------------------------------------------




 Dimension of arrays:
   k-points           NKPTS =      5   k-points in BZ     NKDIM =      5   number of bands    NBANDS=    400
   number of dos      NEDOS =    301   number of ions     NIONS =     67
   non local maximal  LDIM  =      6   non local SUM 2l+1 LMDIM =     18
   total plane-waves  NPLWV = 351232
   max r-space proj   IRMAX =   2083   max aug-charges    IRDMAX=   8764
   dimension x,y,z NGX =    56 NGY =   56 NGZ =  112
   dimension x,y,z NGXF=   112 NGYF=  112 NGZF=  224
   support grid    NGXF=   112 NGYF=  112 NGZF=  224
   ions per type =              64   1   2
 NGX,Y,Z   is equivalent  to a cutoff of   8.31,  8.31,  8.14 a.u.
 NGXF,Y,Z  is equivalent  to a cutoff of  16.62, 16.62, 16.29 a.u.


 I would recommend the setting:
   dimension x,y,z NGX =    55 NGY =   55 NGZ =  112
 SYSTEM =  unknown system                          
 POSCAR =  Pt  C  O  C  O  H                       

 Startparameter for this run:
   NWRITE =      2    write-flag & timer
   PREC   = normal    normal or accurate (medium, high low for compatibility)
   ISTART =      0    job   : 0-new  1-cont  2-samecut
   ICHARG =      2    charge: 1-file 2-atom 10-const
   ISPIN  =      1    spin polarized calculation?
   LNONCOLLINEAR =      F non collinear calculations
   LSORBIT =      F    spin-orbit coupling
   INIWAV =      1    electr: 0-lowe 1-rand  2-diag
   LASPH  =      F    aspherical Exc in radial PAW
   METAGGA=      F    non-selfconsistent MetaGGA calc.

 Electronic Relaxation 1
   ENCUT  =  400.0 eV  29.40 Ry    5.42 a.u.  18.26 18.26 37.28*2*pi/ulx,y,z
   ENINI  =  400.0     initial cutoff
   ENAUG  =  644.9 eV  augmentation charge cutoff
   NELM   =     60;   NELMIN=  2; NELMDL=  0     # of ELM steps 
   EDIFF  = 0.1E-05   stopping-criterion for ELM
   LREAL  =      T    real-space projection
   NLSPLINE    = F    spline interpolate recip. space projectors
   LCOMPAT=      F    compatible to vasp.4.4
   GGA_COMPAT  = T    GGA compatible to vasp.4.4-vasp.4.6
   LMAXPAW     = -100 max onsite density
   LMAXMIX     =    2 max onsite mixed and CHGCAR
   VOSKOWN=      0    Vosko Wilk Nusair interpolation
   ROPT   =   -0.00050  -0.00050  -0.00050
 Ionic relaxation
   EDIFFG = -.2E-01   stopping-criterion for IOM
   NSW    =    100    number of steps for IOM
   NBLOCK =      1;   KBLOCK =    100    inner block; outer block 
   IBRION =      2    ionic relax: 0-MD 1-quasi-New 2-CG
   NFREE  =      1    steps in history (QN), initial steepest desc. (CG)
   ISIF   =      2    stress and relaxation
   IWAVPR =     11    prediction:  0-non 1-charg 2-wave 3-comb
   ISYM   =      2    0-nonsym 1-usesym 2-fastsym
   LCORR  =      T    Harris-Foulkes like correction to forces

   POTIM  = 0.5000    time-step for ionic-motion
   TEIN   =    0.0    initial temperature
   TEBEG  =    0.0;   TEEND  =   0.0 temperature during run
   SMASS  =  -3.00    Nose mass-parameter (am)
   estimated Nose-frequenzy (Omega)   =  0.10E-29 period in steps =****** mass=  -0.287E-26a.u.
   SCALEE = 1.0000    scale energy and forces
   NPACO  =    256;   APACO  = 16.0  distance and # of slots for P.C.
   PSTRESS=    0.0 pullay stress

  Mass of Ions in am
   POMASS = 195.08 16.00  1.00
  Ionic Valenz
   ZVAL   =  10.00  6.00  1.00
  Atomic Wigner-Seitz radii
   RWIGS  =  -1.00 -1.00 -1.00
  virtual crystal weights 
   VCA    =   1.00  1.00  1.00
   NELECT =     648.0000    total number of electrons
   NUPDOWN=      -1.0000    fix difference up-down

 DOS related values:
   EMIN   =  10.00;   EMAX   =-10.00  energy-range for DOS
   EFERMI =   0.00
   ISMEAR =     2;   SIGMA  =   0.20  broadening in eV -4-tet -1-fermi 0-gaus

 Electronic relaxation 2 (details)
   IALGO  =     68    algorithm
   LDIAG  =      T    sub-space diagonalisation (order eigenvalues)
   LSUBROT=      F    optimize rotation matrix (better conditioning)
   TURBO    =      0    0=normal 1=particle mesh
   IRESTART =      0    0=no restart 2=restart with 2 vectors
   NREBOOT  =      0    no. of reboots
   NMIN     =      0    reboot dimension
   EREF     =   0.00    reference energy to select bands
   IMIX   =      4    mixing-type and parameters
     AMIX     =   0.40;   BMIX     =  1.00
     AMIX_MAG =   1.60;   BMIX_MAG =  1.00
     AMIN     =   0.10
     WC   =   100.;   INIMIX=   1;  MIXPRE=   1;  MAXMIX= -45

 Intra band minimization:
   WEIMIN = 0.0010     energy-eigenvalue tresh-hold
   EBREAK =  0.63E-09  absolut break condition
   DEPER  =   0.30     relativ break condition  

   TIME   =   0.40     timestep for ELM

  volume/ion in A,a.u.               =      37.07       250.15
  Fermi-wavevector in a.u.,A,eV,Ry     =   1.046101  1.976844 14.889217  1.094327
  Thomas-Fermi vector in A             =   2.180925
 
 Write flags
   LWAVE  =      F    write WAVECAR
   LCHARG =      F    write CHGCAR
   LVTOT  =      F    write LOCPOT, total local potential
   LVHAR  =      F    write LOCPOT, Hartree potential only
   LELF   =      F    write electronic localiz. function (ELF)
   LORBIT =      0    0 simple, 1 ext, 2 COOP (PROOUT)


 Dipole corrections
   LMONO  =      F    monopole corrections only (constant potential shift)
   LDIPOL =      F    correct potential (dipole corrections)
   IDIPOL =      0    1-x, 2-y, 3-z, 4-all directions 
   EPSILON=  1.0000000 bulk dielectric constant

 Exchange correlation treatment:
   GGA     =    PE    GGA type
   LEXCH   =     8    internal setting for exchange type
   VOSKOWN=      0    Vosko Wilk Nusair interpolation
   LHFCALC =     F    Hartree Fock is set to
   LHFONE  =     F    Hartree Fock one center treatment
   AEXX    =    0.0000 exact exchange contribution

 Linear response parameters
   LEPSILON=     F    determine dielectric tensor
   LRPA    =     F    only Hartree local field effects (RPA)
   LNABLA  =     F    use nabla operator in PAW spheres
   LVEL    =     F    velocity operator in full k-point grid
   LINTERFAST=   F  fast interpolation
   KINTER  =     0    interpolate to denser k-point grid
   CSHIFT  =0.1000    complex shift for real part using Kramers Kronig
   OMEGAMAX=  -1.0    maximum frequency
   DEG_THRESHOLD= 0.2000000E-02 threshold for treating states as degnerate
   RTIME   =    0.100 relaxation time in fs

 Orbital magnetization related:
   ORBITALMAG=     F  switch on orbital magnetization
   LCHIMAG   =     F  perturbation theory with respect to B field
   DQ        =  0.001000  dq finite difference perturbation B field



--------------------------------------------------------------------------------------------------------


 conjugate gradient relaxation of ions
   using selective dynamics as specified on POSCAR
 charge density and potential will be updated during run
 non-spin polarized calculation
 RMM-DIIS sequential band-by-band and
  variant of blocked Davidson during initial phase
 perform sub-space diagonalisation
    before iterative eigenvector-optimisation
 modified Broyden-mixing scheme, WC =      100.0
 initial mixing is a Kerker type mixing with AMIX =  0.4000 and BMIX =      1.0000
 Hartree-type preconditioning will be used
 using additional bands           76
 real space projection scheme for non local part
 use partial core corrections
 calculate Harris-corrections to forces 
   (improved forces if not selfconsistent)
 use gradient corrections 
 use of overlap-Matrix (Vanderbilt PP)
 Methfessel and Paxton  Order N= 2 SIGMA  =   0.20


--------------------------------------------------------------------------------------------------------


  energy-cutoff  :      400.00
  volume of cell :     2483.59
      direct lattice vectors                 reciprocal lattice vectors
    11.200000000  0.000000000  0.000000000     0.089285714  0.051549131  0.000000000
    -5.600000000  9.699484522  0.000000000     0.000000000  0.103098262  0.000000000
     0.000000000  0.000000000 22.861904266     0.000000000  0.000000000  0.043740888

  length of vectors
    11.200000000 11.200000000 22.861904266     0.103098262  0.103098262  0.043740888


 
 k-points in units of 2pi/SCALE and weight:  Automatic mesh        #Titlle/comment  
   0.00000000  0.00000000  0.00000000       0.111
   0.02976190  0.01718304  0.00000000       0.222
   0.00000000  0.03436609  0.00000000       0.222
   0.02976190  0.05154913  0.00000000       0.222
  -0.02976190  0.01718304  0.00000000       0.222
 
 k-points in reciprocal lattice and weights:  Automatic mesh        #Titlle/comment  
   0.00000000  0.00000000  0.00000000       0.111
   0.33333333  0.00000000  0.00000000       0.222
   0.00000000  0.33333333  0.00000000       0.222
   0.33333333  0.33333333  0.00000000       0.222
  -0.33333333  0.33333333  0.00000000       0.222
 
 position of ions in fractional coordinates (direct lattice) 
   0.00000000  0.00000000  0.00000000
   0.25000000  0.00000000  0.00000000
   0.50000000  0.00000000  0.00000000
   0.75000000  0.00000000  0.00000000
   0.99999994  0.24999988  0.00000000
   0.24999994  0.24999988  0.00000000
   0.49999994  0.24999988  0.00000000
   0.74999994  0.24999988  0.00000000
   0.99999988  0.49999977  0.00000000
   0.24999988  0.49999977  0.00000000
   0.49999988  0.49999977  0.00000000
   0.74999988  0.49999977  0.00000000
   0.99999983  0.74999965  0.00000000
   0.24999983  0.74999965  0.00000000
   0.49999983  0.74999965  0.00000000
   0.74999983  0.74999965  0.00000000
   0.16666665  0.08333329  0.09999998
   0.41666665  0.08333329  0.09999998
   0.66666665  0.08333329  0.09999998
   0.91666665  0.08333329  0.09999998
   0.16666659  0.33333318  0.09999998
   0.41666659  0.33333318  0.09999998
   0.66666659  0.33333318  0.09999998
   0.91666659  0.33333318  0.09999998
   0.16666653  0.58333306  0.09999998
   0.41666653  0.58333306  0.09999998
   0.66666653  0.58333306  0.09999998
   0.91666653  0.58333306  0.09999998
   0.16666647  0.83333294  0.09999998
   0.41666647  0.83333294  0.09999998
   0.66666647  0.83333294  0.09999998
   0.91666647  0.83333294  0.09999998
   0.08405122  0.16588739  0.19800804
   0.33485536  0.16636446  0.19775626
   0.58449996  0.16628084  0.19819058
   0.83425865  0.16661118  0.19787201
   0.08613786  0.41720572  0.19943552
   0.33378073  0.41690027  0.19904515
   0.58439506  0.41584966  0.19780179
   0.83449363  0.41600761  0.19793095
   0.08426551  0.66643081  0.19816726
   0.33345782  0.66466423  0.19924120
   0.58476267  0.66648956  0.19799109
   0.83436159  0.66601741  0.19806572
   0.08459121  0.91633604  0.19805444
   0.33469447  0.91630433  0.19789522
   0.58408445  0.91652518  0.19780679
   0.83415437  0.91639627  0.19803803
   0.00162048  0.99852427  0.29789810
   0.25200934  0.99910067  0.29791539
   0.50220622  0.99958091  0.29800814
   0.75198614  0.99922548  0.29792478
   0.00001645  0.24697114  0.29745929
   0.25171130  0.24656731  0.29708149
   0.50226243  0.24896649  0.29795551
   0.75174953  0.24909565  0.29806090
   0.00041527  0.49914938  0.29759565
   0.25273836  0.49881779  0.30185704
   0.50455764  0.49930704  0.29715355
   0.75219324  0.49924495  0.29798551
   0.00189127  0.74935869  0.29799414
   0.25209292  0.75091816  0.29757691
   0.50434196  0.75128243  0.29720719
   0.75276402  0.74955463  0.29789580
   0.25773858  0.49510211  0.41120926
   0.26832558  0.41698627  0.42353354
   0.34067384  0.57789939  0.42507491
 
 position of ions in cartesian coordinates  (Angst):
   0.00000000  0.00000000  0.00000000
   2.80000000  0.00000000  0.00000000
   5.60000000  0.00000000  0.00000000
   8.40000000  0.00000000  0.00000000
   9.80000000  2.42487000  0.00000000
   1.40000000  2.42487000  0.00000000
   4.20000000  2.42487000  0.00000000
   7.00000000  2.42487000  0.00000000
   8.40000000  4.84974000  0.00000000
   0.00000000  4.84974000  0.00000000
   2.80000000  4.84974000  0.00000000
   5.60000000  4.84974000  0.00000000
   7.00000000  7.27461000  0.00000000
  -1.40000000  7.27461000  0.00000000
   1.40000000  7.27461000  0.00000000
   4.20000000  7.27461000  0.00000000
   1.40000000  0.80829000  2.28619000
   4.20000000  0.80829000  2.28619000
   7.00000000  0.80829000  2.28619000
   9.80000000  0.80829000  2.28619000
   0.00000000  3.23316000  2.28619000
   2.80000000  3.23316000  2.28619000
   5.60000000  3.23316000  2.28619000
   8.40000000  3.23316000  2.28619000
  -1.40000000  5.65803000  2.28619000
   1.40000000  5.65803000  2.28619000
   4.20000000  5.65803000  2.28619000
   7.00000000  5.65803000  2.28619000
  -2.80000000  8.08290000  2.28619000
   0.00000000  8.08290000  2.28619000
   2.80000000  8.08290000  2.28619000
   5.60000000  8.08290000  2.28619000
   0.01240426  1.60902221  4.52684077
   2.81873905  1.61364946  4.52108466
   5.61522683  1.61283841  4.53101409
   8.41067422  1.61604260  4.52373100
  -1.37160801  4.04668040  4.55947573
   1.40370266  4.04371776  4.55055116
   4.21646658  4.03352738  4.52212558
   7.01668606  4.03505939  4.52507842
  -2.78823882  6.46403536  4.53048087
   0.01260789  6.44690038  4.55503322
   2.81700035  6.46460519  4.52645337
   5.61515235  6.46002555  4.52815958
  -4.18406024  8.88798721  4.52790154
  -1.38272618  8.88767969  4.52426168
   1.40920485  8.88982178  4.52223997
   4.21070986  8.88857142  4.52752641
  -5.57358654  9.68517069  6.81051778
  -2.77245913  9.69076147  6.81091315
   0.02705652  9.69541959  6.81303356
   2.82658210  9.69197206  6.81112790
  -1.38285419  2.39549279  6.80048573
   1.43838960  2.39157581  6.79184848
   4.23112687  2.41484663  6.81183030
   7.02465909  2.41609935  6.81423976
  -2.79058553  4.84149170  6.80360320
   0.03728996  4.83827548  6.90102683
   2.85492609  4.84302091  6.79349611
   5.62879256  4.84241864  6.81251609
  -4.17522645  7.26839298  6.81271347
  -1.38170102  7.28351912  6.80317492
   1.44144828  7.28705233  6.79472235
   4.23345109  7.27029351  6.81046521
   0.11410028  4.80223527  9.40102683
   0.67012342  4.04455184  9.68278324
   0.57931045  5.60532617  9.71802195
 


--------------------------------------------------------------------------------------------------------


 k-point  1 :   0.0000 0.0000 0.0000  plane waves:   45123
 k-point  2 :   0.3333 0.0000 0.0000  plane waves:   45124
 k-point  3 :   0.0000 0.3333 0.0000  plane waves:   45124
 k-point  4 :   0.3333 0.3333 0.0000  plane waves:   45102
 k-point  5 :  -0.3333 0.3333 0.0000  plane waves:   45124

 maximum and minimum number of plane-waves per node :     45124    45102

 maximum number of plane-waves:     45124
 maximum index in each direction: 
   IXMAX=   18   IYMAX=   18   IZMAX=   37
   IXMIN=  -18   IYMIN=  -18   IZMIN=  -37

 WARNING: aliasing errors must be expected set NGX to  74 to avoid them
 WARNING: aliasing errors must be expected set NGY to  74 to avoid them
 WARNING: aliasing errors must be expected set NGZ to 150 to avoid them
 aliasing errors are usually negligible using standard VASP settings
 and one can safely disregard these warnings

 serial   3D FFT for wavefunctions
 parallel 3D FFT for charge:
    minimum data exchange during FFTs selected (reduces bandwidth)


 total amount of memory used by VASP on root node   179025. kBytes
========================================================================

   base      :      30000. kBytes
   nonlr-proj:      22547. kBytes
   fftplans  :       7383. kBytes
   grid      :      25414. kBytes
   one-center:       1041. kBytes
   wavefun   :      92640. kBytes
 
     INWAV:  cpu time    0.0000: real time    0.0000
 Broyden mixing: mesh for mixing (old mesh)
   NGX = 37   NGY = 37   NGZ = 75
  (NGX  =112   NGY  =112   NGZ  =224)
  gives a total of 102675 points

 initial charge density was supplied:
 charge density of overlapping atoms calculated
 number of electron     648.0000000 magnetization 
 keeping initial charge density in first step


--------------------------------------------------------------------------------------------------------


 Maximum index for non-local projection operator         1981
 Maximum index for augmentation-charges          601 (set IRDMAX)


--------------------------------------------------------------------------------------------------------


 First call to EWALD:  gamma=   0.131
 Maximum number of real-space cells 4x 4x 2
 Maximum number of reciprocal cells 2x 2x 4

 FEWALD executed in parallel
    FEWALD:  cpu time    0.0040: real time    0.0043


----------------------------------------- Iteration    1(   1)  ---------------------------------------


    POTLOK:  cpu time    0.1640: real time    0.1680
    SETDIJ:  cpu time    0.0200: real time    0.0202
     EDDAV:  cpu time   29.0720: real time   29.0835
       DOS:  cpu time    0.0000: real time    0.0010
    --------------------------------------------
      LOOP:  cpu time   29.2600: real time   29.2822

 eigenvalue-minimisations  :  4000
 total energy-change (2. order) : 0.3908553E+04  (-0.2540779E+05)
 number of electron     648.0000000 magnetization 
 augmentation part      648.0000000 magnetization 

 Free energy of the ion-electron system (eV)
  ---------------------------------------------------
  alpha Z        PSCENC =      1594.63853316
  Ewald energy   TEWEN  =    191295.59891445
  -Hartree energ DENC   =   -241366.35654310
  -exchange      EXHF   =         0.00000000
  -V(xc)+E(xc)   XCENC  =       250.10585002
  PAW double counting   =     44902.72379916   -43094.41283681
  entropy T*S    EENTRO =         0.00525988
  eigenvalues    EBANDS =      3205.86509054
  atomic energy  EATOM  =     47120.38537711
  Solvation  Ediel_sol  =         0.00000000
  ---------------------------------------------------
  free energy    TOTEN  =      3908.55344441 eV

  energy without entropy =     3908.54818453  energy(sigma->0) =     3908.55212944


--------------------------------------------------------------------------------------------------------




----------------------------------------- Iteration    1(   2)  ---------------------------------------


     EDDAV:  cpu time   32.9200: real time   32.9265
       DOS:  cpu time    0.0040: real time    0.0010
    --------------------------------------------
      LOOP:  cpu time   32.9240: real time   32.9292

 eigenvalue-minimisations  :  4672
 total energy-change (2. order) :-0.4033055E+04  (-0.3705625E+04)
 number of electron     648.0000000 magnetization 
 augmentation part      648.0000000 magnetization 

 Free energy of the ion-electron system (eV)
  ---------------------------------------------------
  alpha Z        PSCENC =      1594.63853316
  Ewald energy   TEWEN  =    191295.59891445
  -Hartree energ DENC   =   -241366.35654310
  -exchange      EXHF   =         0.00000000
  -V(xc)+E(xc)   XCENC  =       250.10585002
  PAW double counting   =     44902.72379916   -43094.41283681
  entropy T*S    EENTRO =        -0.00795655
  eigenvalues    EBANDS =      -827.17667115
  atomic energy  EATOM  =     47120.38537711
  Solvation  Ediel_sol  =         0.00000000
  ---------------------------------------------------
  free energy    TOTEN  =      -124.50153371 eV

  energy without entropy =     -124.49357716  energy(sigma->0) =     -124.49954457


--------------------------------------------------------------------------------------------------------




----------------------------------------- Iteration    1(   3)  ---------------------------------------


     EDDAV:  cpu time   33.6320: real time   33.6414
       DOS:  cpu time    0.0000: real time    0.0010
    --------------------------------------------
      LOOP:  cpu time   33.6320: real time   33.6442

 eigenvalue-minimisations  :  4800
 total energy-change (2. order) :-0.2765486E+03  (-0.2504310E+03)
 number of electron     648.0000000 magnetization 
 augmentation part      648.0000000 magnetization 

 Free energy of the ion-electron system (eV)
  ---------------------------------------------------
  alpha Z        PSCENC =      1594.63853316
  Ewald energy   TEWEN  =    191295.59891445
  -Hartree energ DENC   =   -241366.35654310
  -exchange      EXHF   =         0.00000000
  -V(xc)+E(xc)   XCENC  =       250.10585002
  PAW double counting   =     44902.72379916   -43094.41283681
  entropy T*S    EENTRO =         0.11512576
  eigenvalues    EBANDS =     -1103.84833753
  atomic energy  EATOM  =     47120.38537711
  Solvation  Ediel_sol  =         0.00000000
  ---------------------------------------------------
  free energy    TOTEN  =      -401.05011779 eV

  energy without entropy =     -401.16524355  energy(sigma->0) =     -401.07889923


--------------------------------------------------------------------------------------------------------




----------------------------------------- Iteration    1(   4)  ---------------------------------------


     EDDAV:  cpu time   33.9920: real time   34.0002
       DOS:  cpu time    0.0000: real time    0.0010
    --------------------------------------------
      LOOP:  cpu time   33.9960: real time   34.0028

 eigenvalue-minimisations  :  4896
 total energy-change (2. order) :-0.9856416E+01  (-0.9598142E+01)
 number of electron     648.0000000 magnetization 
 augmentation part      648.0000000 magnetization 

 Free energy of the ion-electron system (eV)
  ---------------------------------------------------
  alpha Z        PSCENC =      1594.63853316
  Ewald energy   TEWEN  =    191295.59891445
  -Hartree energ DENC   =   -241366.35654310
  -exchange      EXHF   =         0.00000000
  -V(xc)+E(xc)   XCENC  =       250.10585002
  PAW double counting   =     44902.72379916   -43094.41283681
  entropy T*S    EENTRO =         0.12812694
  eigenvalues    EBANDS =     -1113.71775508
  atomic energy  EATOM  =     47120.38537711
  Solvation  Ediel_sol  =         0.00000000
  ---------------------------------------------------
  free energy    TOTEN  =      -410.90653415 eV

  energy without entropy =     -411.03466109  energy(sigma->0) =     -410.93856589


--------------------------------------------------------------------------------------------------------




----------------------------------------- Iteration    1(   5)  ---------------------------------------


     EDDAV:  cpu time   35.6280: real time   35.6352
       DOS:  cpu time    0.0000: real time    0.0010
    CHARGE:  cpu time    1.5120: real time    1.5138
    MIXING:  cpu time    0.0120: real time    0.0083
    --------------------------------------------
      LOOP:  cpu time   37.1560: real time   37.1615

 eigenvalue-minimisations  :  5152
 total energy-change (2. order) :-0.3269712E+00  (-0.3263004E+00)
 number of electron     648.0000250 magnetization 
 augmentation part      187.3817987 magnetization 

 Broyden mixing:
  rms(total) = 0.84011E+01    rms(broyden)= 0.84009E+01
  rms(prec ) = 0.85095E+01
  weight for this iteration     100.00

 Free energy of the ion-electron system (eV)
  ---------------------------------------------------
  alpha Z        PSCENC =      1594.63853316
  Ewald energy   TEWEN  =    191295.59891445
  -Hartree energ DENC   =   -241366.35654310
  -exchange      EXHF   =         0.00000000
  -V(xc)+E(xc)   XCENC  =       250.10585002
  PAW double counting   =     44902.72379916   -43094.41283681
  entropy T*S    EENTRO =         0.12806351
  eigenvalues    EBANDS =     -1114.04466288
  atomic energy  EATOM  =     47120.38537711
  Solvation  Ediel_sol  =         0.00000000
  ---------------------------------------------------
  free energy    TOTEN  =      -411.23350538 eV

  energy without entropy =     -411.36156889  energy(sigma->0) =     -411.26552126


--------------------------------------------------------------------------------------------------------




----------------------------------------- Iteration    1(   6)  ---------------------------------------


    POTLOK:  cpu time    0.1560: real time    0.1570
    SETDIJ:  cpu time    0.0200: real time    0.0191
    EDDIAG:  cpu time    5.4080: real time    5.4112
  RMM-DIIS:  cpu time   13.3160: real time   13.3178
    ORTHCH:  cpu time    1.5400: real time    1.5406
       DOS:  cpu time    0.0000: real time    0.0011
    CHARGE:  cpu time    1.5800: real time    1.5770
    MIXING:  cpu time    0.0040: real time    0.0063
    --------------------------------------------
      LOOP:  cpu time   22.0240: real time   22.0324

 eigenvalue-minimisations  :  4016
 total energy-change (2. order) : 0.1784864E+02  (-0.6497168E+01)
 number of electron     648.0000339 magnetization 
 augmentation part      197.2530066 magnetization 

 Broyden mixing:
  rms(total) = 0.57407E+01    rms(broyden)= 0.57406E+01
  rms(prec ) = 0.59974E+01
  weight for this iteration     100.00

 eigenvalues of (default mixing * dielectric matrix)
  average eigenvalue GAMMA=   1.4916
  1.4916

 Free energy of the ion-electron system (eV)
  ---------------------------------------------------
  alpha Z        PSCENC =      1594.63853316
  Ewald energy   TEWEN  =    191295.59891445
  -Hartree energ DENC   =   -240687.04290364
  -exchange      EXHF   =         0.00000000
  -V(xc)+E(xc)   XCENC  =       234.73553471
  PAW double counting   =     49620.17329804   -47905.34293224
  entropy T*S    EENTRO =        -0.08238278
  eigenvalues    EBANDS =     -1666.44830592
  atomic energy  EATOM  =     47120.38537711
  Solvation  Ediel_sol  =         0.00000000
  ---------------------------------------------------
  free energy    TOTEN  =      -393.38486712 eV

  energy without entropy =     -393.30248434  energy(sigma->0) =     -393.36427142


--------------------------------------------------------------------------------------------------------




----------------------------------------- Iteration    1(   7)  ---------------------------------------


    POTLOK:  cpu time    0.1480: real time    0.1454
    SETDIJ:  cpu time    0.0200: real time    0.0203
    EDDIAG:  cpu time    5.3160: real time    5.3189
  RMM-DIIS:  cpu time   13.0200: real time   13.0225
    ORTHCH:  cpu time    1.5520: real time    1.5507
       DOS:  cpu time    0.0000: real time    0.0011
    CHARGE:  cpu time    1.4800: real time    1.4805
    MIXING:  cpu time    0.0080: real time    0.0056
    --------------------------------------------
      LOOP:  cpu time   21.5440: real time   21.5471

 eigenvalue-minimisations  :  4004
 total energy-change (2. order) :-0.8460627E+02  (-0.1315797E+02)
 number of electron     648.0000194 magnetization 
 augmentation part      194.4050507 magnetization 

 Broyden mixing:
  rms(total) = 0.77768E+01    rms(broyden)= 0.77766E+01
  rms(prec ) = 0.93693E+01
  weight for this iteration     100.00

 eigenvalues of (default mixing * dielectric matrix)
  average eigenvalue GAMMA=   1.1999
  2.1252  0.2747

 Free energy of the ion-electron system (eV)
  ---------------------------------------------------
  alpha Z        PSCENC =      1594.63853316
  Ewald energy   TEWEN  =    191295.59891445
  -Hartree energ DENC   =   -241219.43784018
  -exchange      EXHF   =         0.00000000
  -V(xc)+E(xc)   XCENC  =       228.95940471
  PAW double counting   =     53520.39311134   -51850.75319653
  entropy T*S    EENTRO =         0.05732159
  eigenvalues    EBANDS =     -1167.83276749
  atomic energy  EATOM  =     47120.38537711
  Solvation  Ediel_sol  =         0.00000000
  ---------------------------------------------------
  free energy    TOTEN  =      -477.99114184 eV

  energy without entropy =     -478.04846343  energy(sigma->0) =     -478.00547224


--------------------------------------------------------------------------------------------------------




----------------------------------------- Iteration    1(   8)  ---------------------------------------


    POTLOK:  cpu time    0.1480: real time    0.1497
    SETDIJ:  cpu time    0.0200: real time    0.0193
    EDDIAG:  cpu time    5.4720: real time    5.4718
  RMM-DIIS:  cpu time   13.2080: real time   13.2131
    ORTHCH:  cpu time    1.6520: real time    1.6512
       DOS:  cpu time    0.0000: real time    0.0011
    CHARGE:  cpu time    1.5680: real time    1.5651
    MIXING:  cpu time    0.0040: real time    0.0060
    --------------------------------------------
      LOOP:  cpu time   22.0720: real time   22.0801

 eigenvalue-minimisations  :  4020
 total energy-change (2. order) : 0.8553541E+02  (-0.4699108E+01)
 number of electron     648.0000262 magnetization 
 augmentation part      200.7961197 magnetization 

 Broyden mixing:
  rms(total) = 0.25586E+01    rms(broyden)= 0.25585E+01
  rms(prec ) = 0.31631E+01
  weight for this iteration     100.00

 eigenvalues of (default mixing * dielectric matrix)
  average eigenvalue GAMMA=   1.0032
  2.1063  0.5867  0.3166

 Free energy of the ion-electron system (eV)
  ---------------------------------------------------
  alpha Z        PSCENC =      1594.63853316
  Ewald energy   TEWEN  =    191295.59891445
  -Hartree energ DENC   =   -240705.97546568
  -exchange      EXHF   =         0.00000000
  -V(xc)+E(xc)   XCENC  =       225.87227648
  PAW double counting   =     56497.50844675   -54868.09497962
  entropy T*S    EENTRO =         0.07145738
  eigenvalues    EBANDS =     -1552.46028826
  atomic energy  EATOM  =     47120.38537711
  Solvation  Ediel_sol  =         0.00000000
  ---------------------------------------------------
  free energy    TOTEN  =      -392.45572821 eV

  energy without entropy =     -392.52718560  energy(sigma->0) =     -392.47359256


--------------------------------------------------------------------------------------------------------




----------------------------------------- Iteration    1(   9)  ---------------------------------------


    POTLOK:  cpu time    0.1520: real time    0.1507
    SETDIJ:  cpu time    0.0200: real time    0.0193
    EDDIAG:  cpu time    5.4200: real time    5.4226
  RMM-DIIS:  cpu time   13.1280: real time   13.1280
    ORTHCH:  cpu time    1.7200: real time    1.7212
       DOS:  cpu time    0.0000: real time    0.0011
    CHARGE:  cpu time    1.6320: real time    1.6297
    MIXING:  cpu time    0.0040: real time    0.0060
    --------------------------------------------
      LOOP:  cpu time   22.0760: real time   22.0805

 eigenvalue-minimisations  :  4019
 total energy-change (2. order) :-0.1963791E+02  (-0.2715052E+01)
 number of electron     648.0000287 magnetization 
 augmentation part      199.8776927 magnetization 

 Broyden mixing:
  rms(total) = 0.47656E+01    rms(broyden)= 0.47654E+01
  rms(prec ) = 0.69826E+01
  weight for this iteration     100.00

 eigenvalues of (default mixing * dielectric matrix)
  average eigenvalue GAMMA=   0.9094
  2.1645  1.0192  0.2946  0.1593

 Free energy of the ion-electron system (eV)
  ---------------------------------------------------
  alpha Z        PSCENC =      1594.63853316
  Ewald energy   TEWEN  =    191295.59891445
  -Hartree energ DENC   =   -240677.85540594
  -exchange      EXHF   =         0.00000000
  -V(xc)+E(xc)   XCENC  =       227.17626748
  PAW double counting   =     56734.18035293   -55103.49532922
  entropy T*S    EENTRO =         0.06754364
  eigenvalues    EBANDS =     -1602.78988880
  atomic energy  EATOM  =     47120.38537711
  Solvation  Ediel_sol  =         0.00000000
  ---------------------------------------------------
  free energy    TOTEN  =      -412.09363519 eV

  energy without entropy =     -412.16117883  energy(sigma->0) =     -412.11052110


--------------------------------------------------------------------------------------------------------




----------------------------------------- Iteration    1(  10)  ---------------------------------------


    POTLOK:  cpu time    0.1560: real time    0.1534
    SETDIJ:  cpu time    0.0160: real time    0.0192
    EDDIAG:  cpu time    5.3960: real time    5.3951
  RMM-DIIS:  cpu time   13.1240: real time   13.1271
    ORTHCH:  cpu time    1.5400: real time    1.5397
       DOS:  cpu time    0.0000: real time    0.0011
    CHARGE:  cpu time    1.6280: real time    1.6268
    MIXING:  cpu time    0.0040: real time    0.0063
    --------------------------------------------
      LOOP:  cpu time   21.8640: real time   21.8719

 eigenvalue-minimisations  :  4026
 total energy-change (2. order) : 0.1152754E+02  (-0.1280565E+01)
 number of electron     648.0000365 magnetization 
 augmentation part      199.8425812 magnetization 

 Broyden mixing:
  rms(total) = 0.38360E+01    rms(broyden)= 0.38358E+01
  rms(prec ) = 0.52542E+01
  weight for this iteration     100.00

 eigenvalues of (default mixing * dielectric matrix)
  average eigenvalue GAMMA=   0.8045
  2.2520  1.1507  0.2553  0.2553  0.1092

 Free energy of the ion-electron system (eV)
  ---------------------------------------------------
  alpha Z        PSCENC =      1594.63853316
  Ewald energy   TEWEN  =    191295.59891445
  -Hartree energ DENC   =   -240710.35337356
  -exchange      EXHF   =         0.00000000
  -V(xc)+E(xc)   XCENC  =       228.11470807
  PAW double counting   =     57040.62110028   -55409.66989457
  entropy T*S    EENTRO =         0.00355674
  eigenvalues    EBANDS =     -1559.90501869
  atomic energy  EATOM  =     47120.38537711
  Solvation  Ediel_sol  =         0.00000000
  ---------------------------------------------------
  free energy    TOTEN  =      -400.56609701 eV

  energy without entropy =     -400.56965375  energy(sigma->0) =     -400.56698619


--------------------------------------------------------------------------------------------------------




----------------------------------------- Iteration    1(  11)  ---------------------------------------


    POTLOK:  cpu time    0.1520: real time    0.1531
    SETDIJ:  cpu time    0.0200: real time    0.0193
    EDDIAG:  cpu time    5.4080: real time    5.4114
  RMM-DIIS:  cpu time   13.1800: real time   13.1837
    ORTHCH:  cpu time    1.5800: real time    1.5796
       DOS:  cpu time    0.0040: real time    0.0012
    CHARGE:  cpu time    1.6280: real time    1.6310
    MIXING:  cpu time    0.0080: real time    0.0066
    --------------------------------------------
      LOOP:  cpu time   21.9840: real time   21.9881

 eigenvalue-minimisations  :  4018
 total energy-change (2. order) : 0.1288214E+02  (-0.4044882E+00)
 number of electron     648.0000297 magnetization 
 augmentation part      199.5257588 magnetization 

 Broyden mixing:
  rms(total) = 0.16937E+01    rms(broyden)= 0.16935E+01
  rms(prec ) = 0.19660E+01
  weight for this iteration     100.00

 eigenvalues of (default mixing * dielectric matrix)
  average eigenvalue GAMMA=   0.7200
  2.1892  1.1310  0.3013  0.2967  0.2967  0.1050

 Free energy of the ion-electron system (eV)
  ---------------------------------------------------
  alpha Z        PSCENC =      1594.63853316
  Ewald energy   TEWEN  =    191295.59891445
  -Hartree energ DENC   =   -240734.71592546
  -exchange      EXHF   =         0.00000000
  -V(xc)+E(xc)   XCENC  =       228.41037724
  PAW double counting   =     57355.31397620   -55726.24941160
  entropy T*S    EENTRO =         0.06255469
  eigenvalues    EBANDS =     -1521.12835037
  atomic energy  EATOM  =     47120.38537711
  Solvation  Ediel_sol  =         0.00000000
  ---------------------------------------------------
  free energy    TOTEN  =      -387.68395457 eV

  energy without entropy =     -387.74650927  energy(sigma->0) =     -387.69959324


--------------------------------------------------------------------------------------------------------




----------------------------------------- Iteration    1(  12)  ---------------------------------------


    POTLOK:  cpu time    0.1520: real time    0.1530
    SETDIJ:  cpu time    0.0200: real time    0.0192
    EDDIAG:  cpu time    5.3200: real time    5.3199
  RMM-DIIS:  cpu time   13.0960: real time   13.1001
    ORTHCH:  cpu time    1.7520: real time    1.7527
       DOS:  cpu time    0.0040: real time    0.0015
    CHARGE:  cpu time    1.5760: real time    1.5788
    MIXING:  cpu time    0.0080: real time    0.0070
    --------------------------------------------
      LOOP:  cpu time   21.9280: real time   21.9345

 eigenvalue-minimisations  :  4020
 total energy-change (2. order) : 0.1091270E+01  (-0.1847240E+00)
 number of electron     648.0000305 magnetization 
 augmentation part      199.5473573 magnetization 

 Broyden mixing:
  rms(total) = 0.12741E+01    rms(broyden)= 0.12740E+01
  rms(prec ) = 0.14648E+01
  weight for this iteration     100.00

 eigenvalues of (default mixing * dielectric matrix)
  average eigenvalue GAMMA=   0.6579
  2.1131  1.0004  0.4672  0.4046  0.3414  0.1745  0.1039

 Free energy of the ion-electron system (eV)
  ---------------------------------------------------
  alpha Z        PSCENC =      1594.63853316
  Ewald energy   TEWEN  =    191295.59891445
  -Hartree energ DENC   =   -240727.61273025
  -exchange      EXHF   =         0.00000000
  -V(xc)+E(xc)   XCENC  =       228.49425873
  PAW double counting   =     57265.33770423   -55635.41406918
  entropy T*S    EENTRO =         0.07126708
  eigenvalues    EBANDS =     -1528.09194006
  atomic energy  EATOM  =     47120.38537711
  Solvation  Ediel_sol  =         0.00000000
  ---------------------------------------------------
  free energy    TOTEN  =      -386.59268473 eV

  energy without entropy =     -386.66395181  energy(sigma->0) =     -386.61050150


--------------------------------------------------------------------------------------------------------




----------------------------------------- Iteration    1(  13)  ---------------------------------------


    POTLOK:  cpu time    0.1560: real time    0.1543
    SETDIJ:  cpu time    0.0200: real time    0.0192
    EDDIAG:  cpu time    5.3160: real time    5.3184
  RMM-DIIS:  cpu time   13.1600: real time   13.1621
    ORTHCH:  cpu time    1.8160: real time    1.8171
       DOS:  cpu time    0.0000: real time    0.0012
    CHARGE:  cpu time    1.5800: real time    1.5773
    MIXING:  cpu time    0.0040: real time    0.0073
    --------------------------------------------
      LOOP:  cpu time   22.0520: real time   22.0590

 eigenvalue-minimisations  :  4023
 total energy-change (2. order) : 0.8241476E+00  (-0.8656803E-01)
 number of electron     648.0000301 magnetization 
 augmentation part      199.5993795 magnetization 

 Broyden mixing:
  rms(total) = 0.72613E+00    rms(broyden)= 0.72608E+00
  rms(prec ) = 0.88372E+00
  weight for this iteration     100.00

 eigenvalues of (default mixing * dielectric matrix)
  average eigenvalue GAMMA=   0.6547
  2.1639  1.0027  0.5927  0.5927  0.3014  0.3014  0.1046  0.1784

 Free energy of the ion-electron system (eV)
  ---------------------------------------------------
  alpha Z        PSCENC =      1594.63853316
  Ewald energy   TEWEN  =    191295.59891445
  -Hartree energ DENC   =   -240727.11879810
  -exchange      EXHF   =         0.00000000
  -V(xc)+E(xc)   XCENC  =       228.53787215
  PAW double counting   =     57144.01596042   -55513.04989342
  entropy T*S    EENTRO =         0.04969742
  eigenvalues    EBANDS =     -1528.82620037
  atomic energy  EATOM  =     47120.38537711
  Solvation  Ediel_sol  =         0.00000000
  ---------------------------------------------------
  free energy    TOTEN  =      -385.76853717 eV

  energy without entropy =     -385.81823459  energy(sigma->0) =     -385.78096153


--------------------------------------------------------------------------------------------------------




----------------------------------------- Iteration    1(  14)  ---------------------------------------


    POTLOK:  cpu time    0.1520: real time    0.1527
    SETDIJ:  cpu time    0.0200: real time    0.0194
    EDDIAG:  cpu time    5.3320: real time    5.3359
  RMM-DIIS:  cpu time   13.2040: real time   13.2054
    ORTHCH:  cpu time    1.5400: real time    1.5391
       DOS:  cpu time    0.0000: real time    0.0012
    CHARGE:  cpu time    1.5640: real time    1.5650
    MIXING:  cpu time    0.0080: real time    0.0076
    --------------------------------------------
      LOOP:  cpu time   21.8240: real time   21.8286

 eigenvalue-minimisations  :  4026
 total energy-change (2. order) : 0.3443447E+00  (-0.4788439E-01)
 number of electron     648.0000290 magnetization 
 augmentation part      199.5461054 magnetization 

 Broyden mixing:
  rms(total) = 0.51420E+00    rms(broyden)= 0.51416E+00
  rms(prec ) = 0.58417E+00
  weight for this iteration     100.00

 eigenvalues of (default mixing * dielectric matrix)
  average eigenvalue GAMMA=   0.6712
  2.2318  1.0939  0.7851  0.7851  0.3110  0.3110  0.2458  0.1045  0.1727

 Free energy of the ion-electron system (eV)
  ---------------------------------------------------
  alpha Z        PSCENC =      1594.63853316
  Ewald energy   TEWEN  =    191295.59891445
  -Hartree energ DENC   =   -240741.79470528
  -exchange      EXHF   =         0.00000000
  -V(xc)+E(xc)   XCENC  =       228.50722352
  PAW double counting   =     57196.84842117   -55566.51308971
  entropy T*S    EENTRO =         0.06772927
  eigenvalues    EBANDS =     -1513.16259616
  atomic energy  EATOM  =     47120.38537711
  Solvation  Ediel_sol  =         0.00000000
  ---------------------------------------------------
  free energy    TOTEN  =      -385.42419248 eV

  energy without entropy =     -385.49192174  energy(sigma->0) =     -385.44112479


--------------------------------------------------------------------------------------------------------




----------------------------------------- Iteration    1(  15)  ---------------------------------------


    POTLOK:  cpu time    0.1520: real time    0.1525
    SETDIJ:  cpu time    0.0200: real time    0.0193
    EDDIAG:  cpu time    5.3600: real time    5.3592
  RMM-DIIS:  cpu time   13.2240: real time   13.2274
    ORTHCH:  cpu time    1.5400: real time    1.5400
       DOS:  cpu time    0.0000: real time    0.0011
    CHARGE:  cpu time    1.6320: real time    1.6338
    MIXING:  cpu time    0.0080: real time    0.0081
    --------------------------------------------
      LOOP:  cpu time   21.9360: real time   21.9434

 eigenvalue-minimisations  :  4029
 total energy-change (2. order) : 0.1075134E+00  (-0.1820986E-01)
 number of electron     648.0000285 magnetization 
 augmentation part      199.4688252 magnetization 

 Broyden mixing:
  rms(total) = 0.31941E+00    rms(broyden)= 0.31939E+00
  rms(prec ) = 0.36200E+00
  weight for this iteration     100.00

 eigenvalues of (default mixing * dielectric matrix)
  average eigenvalue GAMMA=   0.6419
  2.2128  1.0891  0.8621  0.8621  0.3047  0.3047  0.2558  0.2558  0.1045  0.1678

 Free energy of the ion-electron system (eV)
  ---------------------------------------------------
  alpha Z        PSCENC =      1594.63853316
  Ewald energy   TEWEN  =    191295.59891445
  -Hartree energ DENC   =   -240760.06175426
  -exchange      EXHF   =         0.00000000
  -V(xc)+E(xc)   XCENC  =       228.50875051
  PAW double counting   =     57254.14861754   -55624.41256479
  entropy T*S    EENTRO =         0.10701704
  eigenvalues    EBANDS =     -1494.22956984
  atomic energy  EATOM  =     47120.38537711
  Solvation  Ediel_sol  =         0.00000000
  ---------------------------------------------------
  free energy    TOTEN  =      -385.31667909 eV

  energy without entropy =     -385.42369612  energy(sigma->0) =     -385.34343335


--------------------------------------------------------------------------------------------------------




----------------------------------------- Iteration    1(  16)  ---------------------------------------


    POTLOK:  cpu time    0.1520: real time    0.1533
    SETDIJ:  cpu time    0.0200: real time    0.0193
    EDDIAG:  cpu time    5.3240: real time    5.3286
  RMM-DIIS:  cpu time   13.3280: real time   13.3303
    ORTHCH:  cpu time    1.5520: real time    1.5502
       DOS:  cpu time    0.0000: real time    0.0012
    CHARGE:  cpu time    1.6200: real time    1.6209
    MIXING:  cpu time    0.0080: real time    0.0085
    --------------------------------------------
      LOOP:  cpu time   22.0080: real time   22.0155

 eigenvalue-minimisations  :  4039
 total energy-change (2. order) : 0.1847420E-01  (-0.3962565E-02)
 number of electron     648.0000284 magnetization 
 augmentation part      199.4503588 magnetization 

 Broyden mixing:
  rms(total) = 0.28050E+00    rms(broyden)= 0.28050E+00
  rms(prec ) = 0.33106E+00
  weight for this iteration     100.00

 eigenvalues of (default mixing * dielectric matrix)
  average eigenvalue GAMMA=   0.6445
  2.1028  1.0906  1.0906  0.9457  0.3836  0.3836  0.3215  0.3215  0.1045  0.1726
  0.1726

 Free energy of the ion-electron system (eV)
  ---------------------------------------------------
  alpha Z        PSCENC =      1594.63853316
  Ewald energy   TEWEN  =    191295.59891445
  -Hartree energ DENC   =   -240765.45583218
  -exchange      EXHF   =         0.00000000
  -V(xc)+E(xc)   XCENC  =       228.54981019
  PAW double counting   =     57237.24020028   -55607.29527236
  entropy T*S    EENTRO =         0.11161625
  eigenvalues    EBANDS =     -1489.07155178
  atomic energy  EATOM  =     47120.38537711
  Solvation  Ediel_sol  =         0.00000000
  ---------------------------------------------------
  free energy    TOTEN  =      -385.29820488 eV

  energy without entropy =     -385.40982113  energy(sigma->0) =     -385.32610895


--------------------------------------------------------------------------------------------------------




----------------------------------------- Iteration    1(  17)  ---------------------------------------


    POTLOK:  cpu time    0.1520: real time    0.1530
    SETDIJ:  cpu time    0.0200: real time    0.0192
    EDDIAG:  cpu time    5.4240: real time    5.4272
  RMM-DIIS:  cpu time   13.2480: real time   13.2485
    ORTHCH:  cpu time    1.5400: real time    1.5406
       DOS:  cpu time    0.0000: real time    0.0012
    CHARGE:  cpu time    1.6360: real time    1.6361
    MIXING:  cpu time    0.0080: real time    0.0089
    --------------------------------------------
      LOOP:  cpu time   22.0320: real time   22.0368

 eigenvalue-minimisations  :  4026
 total energy-change (2. order) :-0.3522251E-03  (-0.2215097E-02)
 number of electron     648.0000284 magnetization 
 augmentation part      199.4340884 magnetization 

 Broyden mixing:
  rms(total) = 0.25201E+00    rms(broyden)= 0.25201E+00
  rms(prec ) = 0.30092E+00
  weight for this iteration     100.00

 eigenvalues of (default mixing * dielectric matrix)
  average eigenvalue GAMMA=   0.7615
  2.3830  2.3830  1.2717  0.7060  0.7060  0.3939  0.3113  0.3113  0.1045  0.2292
  0.1758  0.1624

 Free energy of the ion-electron system (eV)
  ---------------------------------------------------
  alpha Z        PSCENC =      1594.63853316
  Ewald energy   TEWEN  =    191295.59891445
  -Hartree energ DENC   =   -240771.69655787
  -exchange      EXHF   =         0.00000000
  -V(xc)+E(xc)   XCENC  =       228.63776695
  PAW double counting   =     57188.70382335   -55558.17610918
  entropy T*S    EENTRO =         0.10698675
  eigenvalues    EBANDS =     -1483.49729182
  atomic energy  EATOM  =     47120.38537711
  Solvation  Ediel_sol  =         0.00000000
  ---------------------------------------------------
  free energy    TOTEN  =      -385.29855711 eV

  energy without entropy =     -385.40554385  energy(sigma->0) =     -385.32530379


--------------------------------------------------------------------------------------------------------




----------------------------------------- Iteration    1(  18)  ---------------------------------------


    POTLOK:  cpu time    0.1560: real time    0.1530
    SETDIJ:  cpu time    0.0240: real time    0.0233
    EDDIAG:  cpu time    5.3160: real time    5.3207
  RMM-DIIS:  cpu time   13.2600: real time   13.2613
    ORTHCH:  cpu time    1.5440: real time    1.5431
       DOS:  cpu time    0.0000: real time    0.0011
    CHARGE:  cpu time    1.6080: real time    1.6074
    MIXING:  cpu time    0.0080: real time    0.0096
    --------------------------------------------
      LOOP:  cpu time   21.9160: real time   21.9217

 eigenvalue-minimisations  :  4027
 total energy-change (2. order) : 0.2905144E-01  (-0.3175322E-02)
 number of electron     648.0000286 magnetization 
 augmentation part      199.3969822 magnetization 

 Broyden mixing:
  rms(total) = 0.14551E+00    rms(broyden)= 0.14550E+00
  rms(prec ) = 0.16756E+00
  weight for this iteration     100.00

 eigenvalues of (default mixing * dielectric matrix)
  average eigenvalue GAMMA=   0.7460
  2.2479  2.2479  1.3562  0.8174  0.7110  0.7110  0.3106  0.3106  0.3065  0.1045
  0.2408  0.1717  0.1616

 Free energy of the ion-electron system (eV)
  ---------------------------------------------------
  alpha Z        PSCENC =      1594.63853316
  Ewald energy   TEWEN  =    191295.59891445
  -Hartree energ DENC   =   -240786.35977176
  -exchange      EXHF   =         0.00000000
  -V(xc)+E(xc)   XCENC  =       228.85656033
  PAW double counting   =     57083.75778077   -55451.93515523
  entropy T*S    EENTRO =         0.10130344
  eigenvalues    EBANDS =     -1470.31304794
  atomic energy  EATOM  =     47120.38537711
  Solvation  Ediel_sol  =         0.00000000
  ---------------------------------------------------
  free energy    TOTEN  =      -385.26950567 eV

  energy without entropy =     -385.37080910  energy(sigma->0) =     -385.29483152


--------------------------------------------------------------------------------------------------------




----------------------------------------- Iteration    1(  19)  ---------------------------------------


    POTLOK:  cpu time    0.1560: real time    0.1535
    SETDIJ:  cpu time    0.0200: real time    0.0193
    EDDIAG:  cpu time    5.3440: real time    5.3478
  RMM-DIIS:  cpu time   13.1560: real time   13.1551
    ORTHCH:  cpu time    1.5400: real time    1.5408
       DOS:  cpu time    0.0000: real time    0.0012
    CHARGE:  cpu time    1.6520: real time    1.6537
    MIXING:  cpu time    0.0120: real time    0.0101
    --------------------------------------------
      LOOP:  cpu time   21.8800: real time   21.8837

 eigenvalue-minimisations  :  4021
 total energy-change (2. order) : 0.1743660E-01  (-0.2360764E-02)
 number of electron     648.0000287 magnetization 
 augmentation part      199.3977667 magnetization 

 Broyden mixing:
  rms(total) = 0.75971E-01    rms(broyden)= 0.75953E-01
[...]
  Edisp (eV):  -19.16017
    FORVDW:  cpu time    4.3800: real time    4.3826

  FORCE on cell =-STRESS in cart. coord.  units (eV):
  Direction    XX          YY          ZZ          XY          YZ          ZX
  --------------------------------------------------------------------------------------
  Alpha Z  1594.63853  1594.63853  1594.63853
  Ewald  226606.94838226658.66657************   -12.86292     5.06553     5.36704
  Hartree237663.48823237672.89246************    -3.55077     0.59191     0.08700
  E(xc)   -2867.87933 -2867.69408 -2886.58755    -0.07378     0.02707    -0.01390
  Local  ************************484516.20828    13.65387    -3.97104    -4.02336
  n-local   266.39510   267.03237   231.24851    -0.74505     0.27171    -0.90882
  augment  3343.93487  3343.28449  3442.14772     0.91353    -0.36393     0.81047
  Kinetic  9369.11539  9354.08788  9639.56288     2.52416    -1.52568    -1.60403
  Fock        0.00000     0.00000     0.00000     0.00000     0.00000     0.00000
  vdW       -22.93407   -22.93359   -16.23167    -0.00171     0.00042    -0.00070
  -------------------------------------------------------------------------------------
  Total     -78.93234   -78.87373    -3.65395    -0.14267     0.09600    -0.28629
  in kB     -50.91978   -50.88196    -2.35719    -0.09204     0.06193    -0.18469
  external pressure =      -34.72 kB  Pullay stress =        0.00 kB


 VOLUME and BASIS-vectors are now :
 -----------------------------------------------------------------------------
  energy-cutoff  :      400.00
  volume of cell :     2483.59
      direct lattice vectors                 reciprocal lattice vectors
    11.200000000  0.000000000  0.000000000     0.089285714  0.051549131  0.000000000
    -5.600000000  9.699484522  0.000000000     0.000000000  0.103098262  0.000000000
     0.000000000  0.000000000 22.861904266     0.000000000  0.000000000  0.043740888

  length of vectors
    11.200000000 11.200000000 22.861904266     0.103098262  0.103098262  0.043740888


 FORCES acting on ions
    electron-ion (+dipol)            ewald-force                    non-local-force                 convergence-correction
 -----------------------------------------------------------------------------------------------
   -.142E-02 0.919E-01 0.241E+04   -.441E-02 -.855E-01 -.241E+04   0.228E-02 -.482E-02 -.113E+01   -.224E-02 -.214E-02 -.392E-02
   0.313E-02 0.755E-01 0.241E+04   -.852E-02 -.708E-01 -.241E+04   0.113E-02 -.327E-02 -.116E+01   0.129E-02 0.115E-02 -.623E-02
   -.147E-01 0.169E-01 0.241E+04   0.722E-02 0.157E-01 -.241E+04   0.241E-02 -.101E-01 -.116E+01   0.169E-02 -.286E-02 -.463E-02
   -.218E-01 0.421E-02 0.241E+04   0.721E-02 0.640E-02 -.241E+04   0.611E-02 -.172E-02 -.114E+01   -.748E-03 -.608E-02 -.318E-02
   0.349E-01 -.143E-01 0.241E+04   -.597E-01 0.166E-01 -.241E+04   0.916E-02 -.421E-02 -.115E+01   0.150E-02 -.790E-03 -.451E-02
   0.185E-01 0.986E-02 0.241E+04   -.102E-01 -.967E-02 -.241E+04   -.718E-02 -.433E-02 -.116E+01   0.186E-02 0.280E-02 -.586E-02
   -.552E-01 0.318E-02 0.241E+04   0.743E-01 -.181E-01 -.241E+04   -.483E-02 0.536E-02 -.116E+01   -.195E-02 0.188E-02 -.465E-02
   -.263E-01 -.228E-01 0.241E+04   -.271E-02 0.154E-01 -.241E+04   0.102E-01 0.238E-02 -.115E+01   -.142E-02 -.165E-02 -.344E-02
   0.148E-01 -.258E-01 0.241E+04   -.327E-01 0.119E-01 -.241E+04   0.432E-02 0.632E-02 -.115E+01   0.847E-03 0.144E-02 -.487E-02
   0.420E-01 -.333E-01 0.241E+04   -.532E-01 0.317E-01 -.241E+04   0.297E-02 -.101E-03 -.111E+01   0.467E-02 0.288E-02 -.523E-02
   -.200E-01 -.400E-01 0.241E+04   0.198E-01 0.211E-01 -.241E+04   0.243E-02 0.106E-01 -.116E+01   -.164E-03 0.426E-02 -.443E-02
   -.718E-01 -.443E-01 0.241E+04   0.675E-01 0.370E-01 -.241E+04   0.436E-02 0.192E-02 -.115E+01   -.535E-02 0.229E-02 -.323E-02
   0.152E-01 0.144E-01 0.241E+04   -.211E-01 -.122E-01 -.241E+04   0.657E-03 0.317E-03 -.113E+01   -.295E-02 -.154E-03 -.431E-02
   0.253E-01 0.273E-01 0.241E+04   -.278E-01 -.995E-02 -.241E+04   -.349E-02 -.739E-02 -.116E+01   0.410E-02 0.541E-04 -.653E-02
   0.759E-02 -.570E-02 0.241E+04   -.275E-01 0.227E-01 -.241E+04   0.108E-01 -.449E-02 -.115E+01   0.380E-02 -.133E-02 -.457E-02
   -.848E-01 -.250E-01 0.241E+04   0.778E-01 0.265E-01 -.241E+04   0.688E-02 0.205E-02 -.113E+01   -.495E-02 -.175E-02 -.247E-02
   0.325E-01 0.493E+00 0.834E+03   -.570E-01 -.485E+00 -.834E+03   0.186E-01 -.917E-02 -.444E+00   -.507E-03 0.145E-03 -.210E-01
   -.567E+00 -.657E-02 0.833E+03   0.560E+00 0.817E-04 -.833E+03   0.262E-01 -.230E-02 -.440E+00   0.165E-02 0.144E-02 -.209E-01
   0.144E+00 -.242E+00 0.833E+03   -.149E+00 0.255E+00 -.833E+03   0.151E-01 -.538E-02 -.442E+00   0.148E-02 -.288E-02 -.199E-01
   -.210E+00 0.256E+00 0.834E+03   0.204E+00 -.246E+00 -.833E+03   0.331E-01 -.679E-02 -.441E+00   -.267E-02 -.397E-02 -.210E-01
   0.424E-03 -.152E-01 0.834E+03   -.172E-01 0.239E-01 -.834E+03   0.251E-01 0.262E-01 -.340E+00   0.227E-02 0.175E-02 -.211E-01
   0.729E+00 -.494E+00 0.834E+03   -.769E+00 0.510E+00 -.833E+03   -.114E-01 0.134E-01 -.416E+00   0.146E-02 0.451E-02 -.191E-01
   -.439E+00 0.342E+00 0.833E+03   0.440E+00 -.337E+00 -.833E+03   0.207E-01 -.126E-01 -.441E+00   -.143E-02 0.272E-02 -.177E-01
   -.821E+00 -.553E+00 0.833E+03   0.848E+00 0.577E+00 -.833E+03   0.494E-01 0.110E-01 -.421E+00   -.229E-02 -.103E-02 -.188E-01
   0.382E-01 -.124E+00 0.834E+03   -.484E-01 0.121E+00 -.834E+03   0.500E-01 -.170E-01 -.339E+00   0.262E-02 0.130E-03 -.215E-01
   0.166E-01 -.104E+00 0.834E+03   -.380E-01 0.106E+00 -.834E+03   -.655E-02 -.233E-01 -.333E+00   0.488E-02 0.244E-02 -.197E-01
   -.489E+00 -.390E+00 0.834E+03   0.476E+00 0.396E+00 -.833E+03   0.196E-01 0.516E-02 -.438E+00   -.210E-02 0.276E-02 -.179E-01
   -.139E+00 -.259E+00 0.833E+03   0.143E+00 0.267E+00 -.833E+03   0.266E-01 0.532E-02 -.436E+00   -.540E-02 -.746E-03 -.177E-01
   0.168E+00 0.258E+00 0.834E+03   -.180E+00 -.272E+00 -.833E+03   0.189E-01 -.887E-02 -.439E+00   -.807E-03 0.157E-04 -.209E-01
   0.854E-02 0.113E+01 0.833E+03   -.208E-01 -.117E+01 -.833E+03   0.193E-01 -.388E-01 -.419E+00   0.560E-02 -.539E-03 -.209E-01
   -.472E+00 0.493E-01 0.834E+03   0.461E+00 -.508E-01 -.833E+03   0.295E-01 -.128E-01 -.442E+00   0.816E-03 -.327E-02 -.205E-01
   -.314E+00 0.179E+00 0.833E+03   0.308E+00 -.175E+00 -.832E+03   0.253E-01 -.509E-02 -.428E+00   -.565E-02 -.349E-02 -.200E-01
   0.702E+00 0.658E+01 -.766E+03   -.684E+00 -.656E+01 0.766E+03   -.180E-01 -.180E-01 0.391E+00   0.173E-02 0.199E-02 -.175E-01
   -.320E+01 0.363E+01 -.768E+03   0.321E+01 -.360E+01 0.768E+03   -.747E-02 -.373E-01 0.452E+00   0.161E-02 0.560E-02 -.140E-01
   -.639E+00 -.167E+00 -.776E+03   0.632E+00 0.160E+00 0.776E+03   0.636E-02 0.428E-02 0.372E+00   -.730E-03 0.260E-02 -.165E-01
   0.331E+01 0.265E+01 -.769E+03   -.332E+01 -.261E+01 0.769E+03   0.587E-02 -.382E-01 0.448E+00   -.178E-02 -.225E-02 -.188E-01
   0.765E+01 0.368E+01 -.767E+03   -.751E+01 -.360E+01 0.767E+03   -.140E+00 -.817E-01 0.247E+00   0.313E-02 0.236E-02 -.140E-01
   -.577E+01 0.359E+01 -.766E+03   0.566E+01 -.354E+01 0.766E+03   0.993E-01 -.571E-01 0.262E+00   0.572E-02 0.587E-02 -.101E-01
   -.532E+01 0.114E+01 -.768E+03   0.528E+01 -.117E+01 0.768E+03   0.391E-01 0.224E-01 0.452E+00   -.246E-02 0.627E-02 -.114E-01
   0.357E+01 0.921E+00 -.770E+03   -.354E+01 -.947E+00 0.770E+03   -.222E-01 0.250E-01 0.449E+00   -.602E-02 0.268E-02 -.160E-01
   0.574E+01 -.275E+01 -.768E+03   -.572E+01 0.275E+01 0.768E+03   -.155E-01 -.740E-02 0.388E+00   -.200E-02 -.187E-02 -.169E-01
   0.753E+00 -.765E+01 -.768E+03   -.753E+00 0.751E+01 0.768E+03   -.743E-02 0.134E+00 0.245E+00   0.860E-02 -.135E-02 -.125E-01
   -.565E+01 -.381E+01 -.766E+03   0.563E+01 0.380E+01 0.766E+03   0.215E-01 0.143E-01 0.387E+00   0.105E-02 -.327E-02 -.132E-01
   -.912E+00 -.146E+01 -.774E+03   0.920E+00 0.146E+01 0.773E+03   0.169E-02 0.117E-01 0.411E+00   -.764E-02 -.489E-02 -.164E-01
   0.128E+01 0.146E+01 -.774E+03   -.126E+01 -.145E+01 0.773E+03   -.171E-01 -.749E-02 0.410E+00   -.129E-02 -.128E-02 -.189E-01
   0.127E+01 -.363E+01 -.770E+03   -.123E+01 0.362E+01 0.769E+03   -.346E-01 0.416E-02 0.451E+00   0.288E-02 0.467E-03 -.163E-01
   -.108E+01 -.460E+01 -.769E+03   0.103E+01 0.458E+01 0.768E+03   0.380E-01 0.269E-01 0.457E+00   0.359E-02 -.563E-02 -.173E-01
   -.135E+01 0.534E+00 -.773E+03   0.135E+01 -.526E+00 0.773E+03   0.598E-02 -.266E-02 0.416E+00   -.447E-02 -.701E-02 -.189E-01
   0.414E+00 0.147E+02 -.237E+04   -.393E+00 -.147E+02 0.237E+04   -.236E-01 0.200E-01 0.111E+01   -.145E-02 -.106E-02 0.160E-02
   -.786E+00 0.221E+01 -.237E+04   0.801E+00 -.222E+01 0.237E+04   -.172E-01 -.409E-02 0.111E+01   0.317E-02 0.440E-02 0.629E-03
   0.673E+00 -.144E+02 -.237E+04   -.639E+00 0.144E+02 0.237E+04   -.375E-01 0.227E-01 0.111E+01   0.118E-02 -.420E-03 0.991E-04
   0.240E+00 -.243E+01 -.237E+04   -.225E+00 0.241E+01 0.237E+04   -.928E-02 0.211E-01 0.111E+01   -.142E-02 -.520E-02 -.606E-03
   0.239E+02 0.320E+02 -.234E+04   -.240E+02 -.322E+02 0.233E+04   0.500E-01 0.176E+00 0.118E+01   0.261E-02 0.424E-02 0.189E-02
   -.196E+02 0.385E+02 -.233E+04   0.197E+02 -.386E+02 0.233E+04   -.861E-01 0.985E-01 0.848E+00   0.500E-02 0.943E-02 0.167E-02
   -.149E+02 0.850E+01 -.237E+04   0.149E+02 -.850E+01 0.236E+04   0.501E-02 -.152E-01 0.109E+01   -.175E-02 0.710E-02 0.504E-03
   0.107E+02 0.554E+01 -.237E+04   -.106E+02 -.555E+01 0.237E+04   -.351E-01 0.525E-02 0.114E+01   -.368E-02 0.238E-02 -.342E-03
   0.382E+02 0.342E-01 -.234E+04   -.384E+02 -.381E-01 0.234E+04   0.167E+00 0.199E-02 0.128E+01   0.107E-02 -.396E-03 0.573E-03
   0.123E+02 -.231E+01 -.225E+04   -.123E+02 0.233E+01 0.225E+04   0.600E-01 -.238E-01 0.259E+01   0.770E-02 0.172E-02 0.297E-02
   -.437E+02 0.150E+00 -.233E+04   0.439E+02 -.148E+00 0.233E+04   -.188E+00 -.580E-02 0.948E+00   0.808E-03 0.184E-02 -.173E-02
   -.372E+01 0.307E+00 -.237E+04   0.374E+01 -.310E+00 0.237E+04   -.135E-01 0.856E-03 0.112E+01   -.796E-02 -.348E-03 -.254E-02
   0.102E+02 -.546E+01 -.237E+04   -.102E+02 0.547E+01 0.237E+04   -.141E-01 -.520E-02 0.114E+01   -.426E-02 -.445E-02 -.788E-03
   0.222E+02 -.323E+02 -.234E+04   -.223E+02 0.324E+02 0.234E+04   0.275E-01 -.146E+00 0.115E+01   0.605E-02 -.378E-02 0.120E-02
   -.175E+02 -.382E+02 -.233E+04   0.175E+02 0.383E+02 0.233E+04   -.909E-01 -.987E-01 0.867E+00   0.447E-02 -.699E-02 -.223E-02
   -.145E+02 -.821E+01 -.237E+04   0.146E+02 0.822E+01 0.237E+04   -.197E-01 -.596E-02 0.110E+01   -.509E-02 -.800E-02 -.150E-02
   0.601E+02 0.346E+01 -.152E+04   -.107E+03 -.597E+01 0.152E+04   0.470E+02 0.252E+01 0.239E+01   0.185E-02 0.247E-03 -.905E-03
   -.536E+02 0.684E+02 -.256E+03   0.587E+02 -.748E+02 0.257E+03   -.508E+01 0.643E+01 -.546E+00   0.172E-03 0.220E-03 0.465E-04
   -.461E+02 -.733E+02 -.258E+03   0.504E+02 0.802E+02 0.259E+03   -.438E+01 -.690E+01 -.919E+00   0.167E-03 -.143E-03 0.213E-04
 -----------------------------------------------------------------------------------------------
   -.376E+02 -.203E+01 -.372E+00   0.142E-12 0.227E-12 -.136E-10   0.377E+02 0.198E+01 0.105E+01   0.104E-01 0.108E-02 -.639E+00
 
 
 POSITION                                       TOTAL-FORCE (eV/Angst)
 -----------------------------------------------------------------------------------
      0.00000      0.00000      0.00000        -0.007686      0.000105      0.030742
      2.80000      0.00000      0.00000        -0.004740      0.003365      0.024744
      5.60000      0.00000      0.00000        -0.005162      0.020381      0.011011
      8.40000      0.00000      0.00000        -0.011103      0.003470      0.021749
      9.80000      2.42487      0.00000        -0.016017     -0.002077      0.030714
      1.40000      2.42487      0.00000         0.001249     -0.000671      0.031934
      4.20000      2.42487      0.00000         0.010442     -0.007056      0.013989
      7.00000      2.42487      0.00000        -0.022077     -0.005930      0.011486
      8.40000      4.84974      0.00000        -0.014579     -0.005398      0.030529
      0.00000      4.84974      0.00000        -0.005444      0.001955      0.030665
      2.80000      4.84974      0.00000         0.000317     -0.003320      0.030696
      5.60000      4.84974      0.00000        -0.007183     -0.002377      0.022558
      7.00000      7.27461      0.00000        -0.010141      0.003017      0.031516
     -1.40000      7.27461      0.00000        -0.003725      0.010714      0.033487
      1.40000      7.27461      0.00000        -0.007084      0.011909      0.031075
      4.20000      7.27461      0.00000        -0.006902      0.002522      0.030658
      1.40000      0.80829      2.28619        -0.008080     -0.000574     -0.033182
      4.20000      0.80829      2.28619         0.019539     -0.006628     -0.049076
      7.00000      0.80829      2.28619         0.009600      0.005826     -0.048065
      9.80000      0.80829      2.28619         0.023155     -0.000263     -0.043786
      0.00000      3.23316      2.28619         0.008845      0.037209      0.043290
      2.80000      3.23316      2.28619        -0.051152      0.034507      0.004523
      5.60000      3.23316      2.28619         0.019035     -0.004737     -0.040452
      8.40000      3.23316      2.28619         0.072474      0.034334      0.003148
     -1.40000      5.65803      2.28619         0.040533     -0.018789      0.037907
      1.40000      5.65803      2.28619        -0.024832     -0.018619      0.050905
      4.20000      5.65803      2.28619         0.003012      0.013931     -0.036692
      7.00000      5.65803      2.28619         0.022645      0.013076     -0.035180
     -2.80000      8.08290      2.28619         0.004096     -0.022316     -0.033520
      0.00000      8.08290      2.28619         0.010829     -0.073763      0.005844
      2.80000      8.08290      2.28619         0.017319     -0.016721     -0.036528
      5.60000      8.08290      2.28619         0.011106     -0.003346     -0.023786
      0.00984      1.61350      4.53185         0.000413     -0.001853     -0.002218
      2.80969      1.61693      4.52670        -0.000913      0.002230      0.001297
      5.60880      1.61428      4.53153        -0.003153      0.000775     -0.006588
      8.40876      1.61662      4.52644        -0.003738     -0.004898      0.000991
     -1.38167      4.04545      4.54585         0.000477     -0.000336      0.005223
      1.40011      4.04461      4.54792        -0.003410      0.002686     -0.006503
      4.20668      4.03832      4.52645         0.000170     -0.001003     -0.000076
      7.01056      4.03848      4.52706        -0.004015      0.002273      0.001294
     -2.79101      6.46562      4.53270        -0.001790     -0.002262     -0.001889
      0.00847      6.45410      4.54830         0.000304     -0.005519     -0.001826
      2.80943      6.46457      4.53303         0.000129      0.002302     -0.000272
      5.60907      6.46307      4.52933        -0.000312      0.000371     -0.001528
     -4.18889      8.89013      4.52912        -0.001218      0.001139     -0.003661
     -1.38887      8.88876      4.52728        -0.002536     -0.000858      0.002335
      1.40647      8.88724      4.52636        -0.000767      0.002133      0.001668
      4.20807      8.88962      4.52840        -0.001284     -0.000754      0.000265
     -5.58207      9.69147      6.81051        -0.006010     -0.002219     -0.000759
     -2.78125      9.69620      6.81006        -0.001052      0.000767      0.000587
      0.01908      9.69583      6.81103        -0.004072      0.001486      0.000614
      2.81672      9.69321      6.80927         0.002342     -0.000315      0.002601
     -1.38649      2.40774      6.80770        -0.003236      0.001795      0.001732
      1.42135      2.41004      6.81166        -0.001549     -0.006682     -0.000561
      4.21774      2.42096      6.81080         0.002963     -0.006165     -0.000803
      7.01760      2.41941      6.80996        -0.006897     -0.001671      0.002361
     -2.79256      4.84585      6.80917        -0.007318     -0.001613     -0.000592
      0.01340      4.84346      6.87727        -0.005525      0.000238      0.003495
      2.82898      4.84766      6.81130         0.000809     -0.000811      0.002476
      5.61753      4.84464      6.80982        -0.001811     -0.001394      0.000218
     -4.18319      7.27141      6.81071        -0.006342      0.000617      0.000815
     -1.38661      7.28007      6.81189        -0.007282      0.003422     -0.002383
      1.42472      7.27836      6.81395        -0.003037      0.000691      0.001518
      4.22005      7.27152      6.81178        -0.002733     -0.004689     -0.000142
      0.11410      4.80224      9.40103         0.019369      0.014228     -0.174441
      0.74461      4.05655      9.47030        -0.010603      0.007194     -0.004157
      0.66174      5.60540      9.51340        -0.004661     -0.005039     -0.003995
 -----------------------------------------------------------------------------------
    total drift:                                0.122742     -0.047019      0.042995


--------------------------------------------------------------------------------------------------------



  FREE ENERGIE OF THE ION-ELECTRON SYSTEM (eV)
  ---------------------------------------------------
  free  energy   TOTEN  =      -404.44345426 eV

  energy  without entropy=     -404.55004802  energy(sigma->0) =     -404.47010270
 
 d Force = 0.8123196E-04[ 0.413E-04, 0.121E-03]  d Energy =-0.2499259E-03 0.331E-03
 d Force =-0.8180084E+01[-0.818E+01,-0.818E+01]  d Ewald  =-0.8180082E+01-0.217E-05


--------------------------------------------------------------------------------------------------------


    POTLOK:  cpu time    0.1760: real time    0.1749


--------------------------------------------------------------------------------------------------------


 stress matrix after NEB project (eV)
    -78.93234     -0.14267     -0.28629
     -0.14267    -78.87373      0.09600
     -0.28629      0.09600     -3.65395
  FORCES: max atom, RMS     0.013470    0.003990
  FORCE total and by dimension    0.032661    0.010603
  Stress total and by dimension  111.646556   78.932340
 Conjugate gradient step on ions:
 trial-energy change:    0.000250  1 .order   -0.000081   -0.000121   -0.000041
  (g-gl).g = 0.123E-03      g.g   = 0.122E-03  gl.gl    = 0.174E-03
 g(Force)  = 0.122E-03   g(Stress)= 0.000E+00 ortho     =-0.336E-05
 gamma     =   0.70806
 trial     =   1.00912
 opt step  =   1.53198  (harmonic =   1.53198) maximal distance =0.00132498
 next E    =  -404.443796   (d E  =  -0.00009)


--------------------------------------------------------------------------------------------------------


  
 reached required accuracy - stopping structural energy minimisation
     LOOP+:  cpu time  242.0400: real time  242.0992
    4ORBIT:  cpu time    0.0000: real time    0.0000

 total amount of memory used by VASP on root node   179025. kBytes
========================================================================

   base      :      30000. kBytes
   nonlr-proj:      22547. kBytes
   fftplans  :       7383. kBytes
   grid      :      25414. kBytes
   one-center:       1041. kBytes
   wavefun   :      92640. kBytes
 
  
  
 General timing and accounting informations for this job:
 ========================================================
  
                  Total CPU time used (sec):     8812.592
                            User time (sec):     8781.980
                          System time (sec):       30.612
                         Elapsed time (sec):     8817.280
  
                   Maximum memory used (kb):      398032.
                   Average memory used (kb):           0.
  
                          Minor page faults:      2190240
                          Major page faults:           31
                 Voluntary context switches:         9624
